       N       E                     dE             d eps       ncg     rms          rms(c)
DAV:   1     0.511578477961E+02    0.51158E+02   -0.14525E+03   384   0.436E+01
DAV:   2    -0.110058774795E+02   -0.62164E+02   -0.55051E+02   384   0.165E+01
DAV:   3    -0.129089440423E+02   -0.19031E+01   -0.19031E+01   256   0.441E+00
DAV:   4    -0.129208535888E+02   -0.11910E-01   -0.11910E-01   384   0.386E-01
DAV:   5    -0.129208882183E+02   -0.34630E-04   -0.34629E-04   384   0.157E-02    0.140E+01
RMM:   6    -0.383243953613E+01    0.90884E+01   -0.15655E+01   256   0.425E+00    0.424E+00
RMM:   7    -0.109680816446E+02   -0.71356E+01   -0.91646E+00   257   0.263E+00    0.352E+00
RMM:   8    -0.112649099245E+02   -0.29683E+00   -0.96568E-01   256   0.864E-01    0.276E+00
RMM:   9    -0.124272151631E+02   -0.11623E+01   -0.10758E+00   256   0.113E+00    0.118E+00
RMM:  10    -0.130557581615E+02   -0.62854E+00   -0.40672E-01   256   0.581E-01    0.116E+00
RMM:  11    -0.130969682324E+02   -0.41210E-01   -0.15780E-01   256   0.288E-01    0.575E-01
RMM:  12    -0.131477218245E+02   -0.50754E-01   -0.58027E-02   257   0.176E-01    0.356E-01
RMM:  13    -0.133862096309E+02   -0.23849E+00   -0.54298E-02   256   0.187E-01    0.345E-01
RMM:  14    -0.137232494414E+02   -0.33704E+00   -0.36094E-02   256   0.130E-01    0.449E-01
RMM:  15    -0.139703703002E+02   -0.24712E+00   -0.17839E-02   256   0.119E-01    0.185E-01
RMM:  16    -0.141104459480E+02   -0.14008E+00   -0.31643E-02   256   0.169E-01    0.254E-01
RMM:  17    -0.141738295853E+02   -0.63384E-01   -0.46885E-03   256   0.594E-02    0.163E-01
RMM:  18    -0.141964081669E+02   -0.22579E-01   -0.49751E-03   257   0.638E-02    0.635E-02
RMM:  19    -0.142096400021E+02   -0.13232E-01   -0.52294E-04   256   0.219E-02    0.165E-02
RMM:  20    -0.142162116442E+02   -0.65716E-02   -0.27928E-04   256   0.142E-02    0.207E-02
RMM:  21    -0.142168442878E+02   -0.63264E-03   -0.50910E-05   256   0.670E-03    0.964E-03
RMM:  22    -0.142169473639E+02   -0.10308E-03   -0.22793E-05   255   0.397E-03    0.375E-03
RMM:  23    -0.142170265287E+02   -0.79165E-04   -0.11332E-05   253   0.296E-03    0.589E-03
RMM:  24    -0.142174640759E+02   -0.43755E-03   -0.41067E-06   252   0.180E-03    0.229E-03
RMM:  25    -0.142177881315E+02   -0.32406E-03   -0.17283E-06   250   0.100E-03    0.192E-03
RMM:  26    -0.142179559967E+02   -0.16787E-03   -0.11476E-06   248   0.104E-03    0.979E-04
RMM:  27    -0.142179833964E+02   -0.27400E-04   -0.40867E-07   248   0.682E-04    0.146E-03
RMM:  28    -0.142179918493E+02   -0.84528E-05   -0.13016E-07   245   0.366E-04
   1 F= -.14218105E+02 E0= -.14218105E+02  d E =-.418838E-10  mag=    -0.0001
       N       E                     dE             d eps       ncg     rms          rms(c)
DAV:   1    -0.142169012120E+02    0.10822E-02   -0.13298E+00   256   0.146E+00    0.176E-01
RMM:   2    -0.142176056873E+02   -0.70448E-03   -0.13127E-02   256   0.138E-01    0.875E-02
RMM:   3    -0.142177587309E+02   -0.15304E-03   -0.11526E-03   256   0.454E-02    0.407E-02
RMM:   4    -0.142178937005E+02   -0.13497E-03   -0.28498E-04   256   0.204E-02    0.124E-02
RMM:   5    -0.142179098749E+02   -0.16174E-04   -0.55714E-05   258   0.775E-03    0.610E-03
RMM:   6    -0.142179246735E+02   -0.14799E-04   -0.38394E-06   253   0.296E-03    0.260E-03
RMM:   7    -0.142179360989E+02   -0.11425E-04   -0.10788E-06   248   0.143E-03    0.125E-03
RMM:   8    -0.142179434875E+02   -0.73886E-05   -0.32891E-07   248   0.606E-04
   2 F= -.14218057E+02 E0= -.14218057E+02  d E =-.284646E-13  mag=    -0.0000
       N       E                     dE             d eps       ncg     rms          rms(c)
DAV:   1    -0.142143978090E+02    0.35383E-02   -0.53273E+00   256   0.292E+00    0.344E-01
RMM:   2    -0.142170983182E+02   -0.27005E-02   -0.45268E-02   256   0.252E-01    0.174E-01
RMM:   3    -0.142174429215E+02   -0.34460E-03   -0.42449E-03   256   0.887E-02    0.723E-02
RMM:   4    -0.142177240071E+02   -0.28109E-03   -0.10717E-03   256   0.394E-02    0.182E-02
RMM:   5    -0.142177687495E+02   -0.44742E-04   -0.19972E-04   258   0.149E-02    0.958E-03
RMM:   6    -0.142178153697E+02   -0.46620E-04   -0.17264E-05   256   0.622E-03    0.366E-03
RMM:   7    -0.142178344650E+02   -0.19095E-04   -0.30139E-06   254   0.234E-03    0.260E-03
RMM:   8    -0.142179001457E+02   -0.65681E-04   -0.64079E-06   252   0.235E-03    0.269E-03
RMM:   9    -0.142179160051E+02   -0.15859E-04   -0.18019E-06   250   0.919E-04    0.225E-03
RMM:  10    -0.142179572131E+02   -0.41208E-04   -0.54968E-06   254   0.196E-03    0.255E-03
RMM:  11    -0.142179715132E+02   -0.14300E-04   -0.22076E-06   250   0.931E-04    0.133E-03
RMM:  12    -0.142179779579E+02   -0.64447E-05   -0.10049E-06   248   0.794E-04
   3 F= -.14218091E+02 E0= -.14218091E+02  d E =-.593717E-13  mag=     0.0000
       N       E                     dE             d eps       ncg     rms          rms(c)
DAV:   1    -0.142093276665E+02    0.86438E-02   -0.26146E+00   256   0.210E+00    0.265E-01
RMM:   2    -0.142105211182E+02   -0.11935E-02   -0.27936E-02   256   0.221E-01    0.163E-01
RMM:   3    -0.142106733147E+02   -0.15220E-03   -0.36544E-03   256   0.788E-02    0.370E-02
RMM:   4    -0.142107663386E+02   -0.93024E-04   -0.63299E-04   256   0.316E-02    0.205E-02
RMM:   5    -0.142108106872E+02   -0.44349E-04   -0.10719E-04   256   0.126E-02    0.749E-03
RMM:   6    -0.142108251438E+02   -0.14457E-04   -0.37054E-05   256   0.610E-03    0.227E-03
RMM:   7    -0.142108464006E+02   -0.21257E-04   -0.96126E-06   256   0.289E-03    0.164E-03
RMM:   8    -0.142108749660E+02   -0.28565E-04   -0.29230E-06   252   0.153E-03    0.115E-03
RMM:   9    -0.142108905272E+02   -0.15561E-04   -0.13729E-06   248   0.874E-04    0.666E-04
RMM:  10    -0.142109015621E+02   -0.11035E-04   -0.74022E-07   248   0.578E-04    0.583E-04
RMM:  11    -0.142109133681E+02   -0.11806E-04   -0.74175E-07   246   0.541E-04    0.251E-04
RMM:  12    -0.142109174033E+02   -0.40351E-05   -0.29445E-07   244   0.394E-04
   4 F= -.14211031E+02 E0= -.14211031E+02  d E =-.417559E-13  mag=    -0.0000
       N       E                     dE             d eps       ncg     rms          rms(c)
DAV:   1    -0.142105474960E+02    0.36587E-03   -0.51541E+00   256   0.292E+00    0.486E-01
RMM:   2    -0.142104668831E+02    0.80613E-04   -0.48960E-02   256   0.283E-01    0.274E-01
RMM:   3    -0.142102771779E+02    0.18971E-03   -0.11002E-02   256   0.123E-01    0.534E-02
RMM:   4    -0.142105531752E+02   -0.27600E-03   -0.14486E-03   256   0.493E-02    0.342E-02
RMM:   5    -0.142107406665E+02   -0.18749E-03   -0.25048E-04   258   0.179E-02    0.957E-03
RMM:   6    -0.142108031354E+02   -0.62469E-04   -0.25270E-05   257   0.616E-03    0.335E-03
RMM:   7    -0.142108307033E+02   -0.27568E-04   -0.63493E-06   255   0.293E-03    0.211E-03
RMM:   8    -0.142108560729E+02   -0.25370E-04   -0.20267E-06   251   0.147E-03    0.104E-03
RMM:   9    -0.142108894337E+02   -0.33361E-04   -0.22925E-06   250   0.112E-03    0.109E-03
RMM:  10    -0.142108940851E+02   -0.46514E-05   -0.49366E-07   248   0.538E-04
   5 F= -.14211007E+02 E0= -.14211007E+02  d E =-.546660E-13  mag=    -0.0000
       N       E                     dE             d eps       ncg     rms          rms(c)
DAV:   1    -0.142128423706E+02   -0.19529E-02   -0.25563E+00   256   0.209E+00    0.350E-01
RMM:   2    -0.142132027497E+02   -0.36038E-03   -0.29227E-02   256   0.230E-01    0.173E-01
RMM:   3    -0.142132454002E+02   -0.42651E-04   -0.43119E-03   256   0.858E-02    0.716E-02
RMM:   4    -0.142132695781E+02   -0.24178E-04   -0.82407E-04   256   0.336E-02    0.175E-02
RMM:   5    -0.142132855677E+02   -0.15990E-04   -0.23626E-04   256   0.166E-02    0.868E-03
RMM:   6    -0.142133036815E+02   -0.18114E-04   -0.10690E-04   256   0.102E-02    0.847E-03
RMM:   7    -0.142133118673E+02   -0.81858E-05   -0.33102E-05   258   0.488E-03
   6 F= -.14213426E+02 E0= -.14213426E+02  d E =-.963260E-14  mag=    -0.0000
       N       E                     dE             d eps       ncg     rms          rms(c)
DAV:   1    -0.142161127764E+02   -0.28091E-02   -0.51642E+00   256   0.293E+00    0.568E-01
RMM:   2    -0.142128664380E+02    0.32463E-02   -0.34491E-02   256   0.259E-01    0.245E-01
RMM:   3    -0.142132728012E+02   -0.40636E-03   -0.10007E-02   256   0.125E-01    0.111E-01
RMM:   4    -0.142133533289E+02   -0.80528E-04   -0.17033E-03   256   0.520E-02    0.588E-02
RMM:   5    -0.142133137014E+02    0.39627E-04   -0.22966E-04   256   0.182E-02    0.288E-02
RMM:   6    -0.142133296012E+02   -0.15900E-04   -0.27217E-04   256   0.165E-02    0.146E-02
RMM:   7    -0.142133499036E+02   -0.20302E-04   -0.22204E-05   256   0.514E-03    0.513E-03
RMM:   8    -0.142133619609E+02   -0.12057E-04   -0.77999E-06   256   0.303E-03    0.159E-03
RMM:   9    -0.142133790795E+02   -0.17119E-04   -0.26366E-06   252   0.155E-03    0.318E-03
RMM:  10    -0.142134005153E+02   -0.21436E-04   -0.17566E-06   248   0.994E-04    0.152E-03
RMM:  11    -0.142134097569E+02   -0.92416E-05   -0.16571E-06   248   0.118E-03
   7 F= -.14213522E+02 E0= -.14213522E+02  d E =-.235658E-12  mag=    -0.0000
       N       E                     dE             d eps       ncg     rms          rms(c)
DAV:   1    -0.142179264589E+02   -0.45259E-02   -0.13500E+00   256   0.151E+00    0.302E-01
RMM:   2    -0.142176876753E+02    0.23878E-03   -0.15268E-02   256   0.163E-01    0.131E-01
RMM:   3    -0.142178667463E+02   -0.17907E-03   -0.25704E-03   256   0.650E-02    0.602E-02
RMM:   4    -0.142179259395E+02   -0.59193E-04   -0.30591E-04   256   0.218E-02    0.171E-02
RMM:   5    -0.142179436435E+02   -0.17704E-04   -0.73831E-05   256   0.959E-03    0.983E-03
RMM:   6    -0.142179558132E+02   -0.12170E-04   -0.32182E-05   256   0.570E-03    0.479E-03
RMM:   7    -0.142179742512E+02   -0.18438E-04   -0.55253E-06   252   0.238E-03    0.204E-03
RMM:   8    -0.142179815137E+02   -0.72624E-05   -0.22492E-06   250   0.107E-03
   8 F= -.14218095E+02 E0= -.14218095E+02  d E =-.310553E-13  mag=     0.0000
       N       E                     dE             d eps       ncg     rms          rms(c)
DAV:   1    -0.142175400694E+02    0.43418E-03   -0.27650E-01   256   0.667E-01    0.166E-01
RMM:   2    -0.142177385509E+02   -0.19848E-03   -0.19826E-03   256   0.647E-02    0.978E-02
RMM:   3    -0.142178723065E+02   -0.13376E-03   -0.29205E-04   256   0.242E-02    0.153E-02
RMM:   4    -0.142178889513E+02   -0.16645E-04   -0.59544E-05   258   0.861E-03    0.877E-03
RMM:   5    -0.142179297493E+02   -0.40798E-04   -0.10509E-05   256   0.393E-03    0.385E-03
RMM:   6    -0.142179400384E+02   -0.10289E-04   -0.19275E-06   248   0.163E-03    0.231E-03
RMM:   7    -0.142179692002E+02   -0.29162E-04   -0.23221E-06   250   0.141E-03    0.128E-03
RMM:   8    -0.142179834995E+02   -0.14299E-04   -0.17641E-06   250   0.927E-04    0.101E-03
RMM:   9    -0.142179883098E+02   -0.48104E-05   -0.43438E-07   248   0.548E-04
   9 F= -.14218101E+02 E0= -.14218101E+02  d E =-.450942E-13  mag=    -0.0000
       N       E                     dE             d eps       ncg     rms          rms(c)
DAV:   1    -0.142142820218E+02    0.37015E-02   -0.15098E-01   256   0.480E-01    0.160E-01
RMM:   2    -0.142141280773E+02    0.15394E-03   -0.19480E-03   256   0.581E-02    0.864E-02
RMM:   3    -0.142141626523E+02   -0.34575E-04   -0.50322E-04   256   0.257E-02    0.344E-02
RMM:   4    -0.142141679002E+02   -0.52479E-05   -0.82201E-05   256   0.110E-02
  10 F= -.14214290E+02 E0= -.14214290E+02  d E =-.124481E-13  mag=    -0.0000
       N       E                     dE             d eps       ncg     rms          rms(c)
DAV:   1    -0.142147924133E+02   -0.62976E-03   -0.33833E-01   256   0.696E-01    0.283E-01
RMM:   2    -0.142139498560E+02    0.84256E-03   -0.57682E-03   256   0.927E-02    0.147E-01
RMM:   3    -0.142139554134E+02   -0.55574E-05   -0.14552E-03   256   0.415E-02    0.623E-02
RMM:   4    -0.142139684622E+02   -0.13049E-04   -0.20788E-04   256   0.178E-02    0.156E-02
RMM:   5    -0.142139816374E+02   -0.13175E-04   -0.29369E-05   256   0.662E-03    0.704E-03
RMM:   6    -0.142140176176E+02   -0.35980E-04   -0.49432E-05   256   0.711E-03    0.139E-02
RMM:   7    -0.142140172210E+02    0.39658E-06   -0.11808E-05   256   0.381E-03
  11 F= -.14214122E+02 E0= -.14214122E+02  d E =-.130494E-12  mag=    -0.0000
       N       E                     dE             d eps       ncg     rms          rms(c)
DAV:   1    -0.142155954909E+02   -0.15779E-02   -0.14334E-01   256   0.457E-01    0.110E-01
RMM:   2    -0.142156613245E+02   -0.65834E-04   -0.58924E-04   256   0.352E-02    0.678E-02
RMM:   3    -0.142157310987E+02   -0.69774E-04   -0.13566E-04   256   0.164E-02    0.632E-03
RMM:   4    -0.142157400578E+02   -0.89592E-05   -0.16085E-05   256   0.600E-03
  12 F= -.14215853E+02 E0= -.14215853E+02  d E =-.589991E-13  mag=    -0.0000
       N       E                     dE             d eps       ncg     rms          rms(c)
DAV:   1    -0.142163747280E+02   -0.64363E-03   -0.31559E-01   256   0.662E-01    0.264E-01
RMM:   2    -0.142155831389E+02    0.79159E-03   -0.42714E-03   256   0.785E-02    0.127E-01
RMM:   3    -0.142157054287E+02   -0.12229E-03   -0.11860E-03   256   0.374E-02    0.588E-02
RMM:   4    -0.142157476913E+02   -0.42263E-04   -0.19767E-04   256   0.185E-02    0.156E-02
RMM:   5    -0.142157384203E+02    0.92710E-05   -0.31138E-05   256   0.900E-03
  13 F= -.14215852E+02 E0= -.14215852E+02  d E =-.896772E-14  mag=     0.0000
       N       E                     dE             d eps       ncg     rms          rms(c)
DAV:   1    -0.142180841118E+02   -0.23364E-02   -0.14934E-01   384   0.472E-01    0.160E-01
RMM:   2    -0.142178650294E+02    0.21908E-03   -0.15334E-03   256   0.477E-02    0.799E-02
RMM:   3    -0.142179515482E+02   -0.86519E-04   -0.41209E-04   256   0.221E-02    0.361E-02
RMM:   4    -0.142179702514E+02   -0.18703E-04   -0.82761E-05   256   0.118E-02    0.101E-02
RMM:   5    -0.142179678678E+02    0.23837E-05   -0.11007E-05   256   0.527E-03
  14 F= -.14218081E+02 E0= -.14218081E+02  d E =-.331800E-13  mag=     0.0000
       N       E                     dE             d eps       ncg     rms          rms(c)
DAV:   1    -0.142175612778E+02    0.40897E-03   -0.27665E-01   256   0.667E-01    0.166E-01
RMM:   2    -0.142177685080E+02   -0.20723E-03   -0.18509E-03   256   0.635E-02    0.977E-02
RMM:   3    -0.142179077442E+02   -0.13924E-03   -0.28594E-04   256   0.241E-02    0.147E-02
RMM:   4    -0.142179183115E+02   -0.10567E-04   -0.49952E-05   256   0.988E-03    0.748E-03
RMM:   5    -0.142179401130E+02   -0.21802E-04   -0.16801E-05   256   0.649E-03    0.343E-03
RMM:   6    -0.142179529380E+02   -0.12825E-04   -0.60245E-06   252   0.339E-03    0.167E-03
RMM:   7    -0.142179699947E+02   -0.17057E-04   -0.19139E-06   250   0.108E-03    0.810E-04
RMM:   8    -0.142179871507E+02   -0.17156E-04   -0.14751E-06   250   0.813E-04    0.677E-04
RMM:   9    -0.142179965726E+02   -0.94219E-05   -0.70226E-07   246   0.563E-04
  15 F= -.14218110E+02 E0= -.14218110E+02  d E =-.447736E-13  mag=    -0.0000
       N       E                     dE             d eps       ncg     rms          rms(c)
DAV:   1    -0.142141217363E+02    0.38654E-02   -0.15470E-01   256   0.487E-01    0.166E-01
RMM:   2    -0.142139402043E+02    0.18153E-03   -0.20779E-03   256   0.602E-02    0.897E-02
RMM:   3    -0.142139800061E+02   -0.39802E-04   -0.56250E-04   256   0.269E-02    0.356E-02
RMM:   4    -0.142139908152E+02   -0.10809E-04   -0.90021E-05   256   0.115E-02    0.104E-02
RMM:   5    -0.142139971440E+02   -0.63288E-05   -0.10842E-05   256   0.403E-03
  16 F= -.14214102E+02 E0= -.14214102E+02  d E =-.942107E-13  mag=    -0.0000
       N       E                     dE             d eps       ncg     rms          rms(c)
DAV:   1    -0.142151569827E+02   -0.11662E-02   -0.33433E-01   256   0.693E-01    0.294E-01
RMM:   2    -0.142141471345E+02    0.10098E-02   -0.61477E-03   256   0.939E-02    0.145E-01
RMM:   3    -0.142141453561E+02    0.17784E-05   -0.14480E-03   256   0.415E-02    0.647E-02
RMM:   4    -0.142141475910E+02   -0.22349E-05   -0.21026E-04   256   0.177E-02    0.153E-02
RMM:   5    -0.142141535472E+02   -0.59562E-05   -0.28889E-05   256   0.674E-03
  17 F= -.14214275E+02 E0= -.14214275E+02  d E =-.138875E-13  mag=     0.0000
       N       E                     dE             d eps       ncg     rms          rms(c)
DAV:   1    -0.142168998345E+02   -0.27522E-02   -0.18794E-01   384   0.505E-01    0.272E-01
RMM:   2    -0.142157190704E+02    0.11808E-02   -0.48588E-03   256   0.746E-02    0.117E-01
RMM:   3    -0.142157557313E+02   -0.36661E-04   -0.98576E-04   256   0.330E-02    0.579E-02
RMM:   4    -0.142157681525E+02   -0.12421E-04   -0.13990E-04   256   0.153E-02    0.957E-03
RMM:   5    -0.142157729162E+02   -0.47637E-05   -0.26438E-05   256   0.798E-03
  18 F= -.14215886E+02 E0= -.14215886E+02  d E =-.800448E-13  mag=     0.0000
       N       E                     dE             d eps       ncg     rms          rms(c)
DAV:   1    -0.142164431588E+02   -0.67501E-03   -0.31657E-01   256   0.662E-01    0.267E-01
RMM:   2    -0.142155821778E+02    0.86098E-03   -0.42427E-03   256   0.779E-02    0.127E-01
RMM:   3    -0.142156928078E+02   -0.11063E-03   -0.11889E-03   256   0.373E-02    0.589E-02
RMM:   4    -0.142157255012E+02   -0.32693E-04   -0.19333E-04   256   0.172E-02    0.161E-02
RMM:   5    -0.142157266408E+02   -0.11396E-05   -0.21316E-05   256   0.591E-03
  19 F= -.14215840E+02 E0= -.14215840E+02  d E =-.111751E-13  mag=     0.0000
