 vasp.6.4.2 20Jul23 (build Mar  9 2024 05:55:09) complex                         
 executed on             LinuxGNU date 2025.02.08  18:51:13
 running   64 mpi-ranks, with    1 threads/rank, on    1 nodes
 distrk:  each k-point on   64 cores,    1 groups
 distr:  one band on NCORE=   1 cores,   64 groups


--------------------------------------------------------------------------------------------------------


 INCAR:
   SYSTEM = water
   PREC = Normal
   NWRITE = 2
   ISTART = 0
   ICHARG = 2
   LWAVE = F
   LCHARG = T
   LAECHG = F
   ALGO = Fast
   ISYM = 1
   NSW = 1
   IBRION = 5
   POTIM = 0.015
   NFREE = 2
   EDIFF = 1E-5
   EDIFFG = -1E-2
   ISIF = 2
   ENCUT = 500
   ISMEAR = 0
   SIGMA = 0.1
   ISPIN = 2
   IVDW = 11

 POTCAR:    PAW_PBE O 08Apr2002                   
 POTCAR:    PAW_PBE H 15Jun2001                   
 -----------------------------------------------------------------------------
|                                                                             |
|           W    W    AA    RRRRR   N    N  II  N    N   GGGG   !!!           |
|           W    W   A  A   R    R  NN   N  II  NN   N  G    G  !!!           |
|           W    W  A    A  R    R  N N  N  II  N N  N  G       !!!           |
|           W WW W  AAAAAA  RRRRR   N  N N  II  N  N N  G  GGG   !            |
|           WW  WW  A    A  R   R   N   NN  II  N   NN  G    G                |
|           W    W  A    A  R    R  N    N  II  N    N   GGGG   !!!           |
|                                                                             |
|     You use a magnetic or noncollinear calculation, but did not specify     |
|     the initial magnetic moment with the MAGMOM tag. Note that a            |
|     default of 1 will be used for all atoms. This ferromagnetic setup       |
|     may break the symmetry of the crystal, in particular it may rule        |
|     out finding an antiferromagnetic solution. Thence, we recommend         |
|     setting the initial magnetic moment manually or verifying carefully     |
|     that this magnetic setup is desired.                                    |
|                                                                             |
 -----------------------------------------------------------------------------

 POTCAR:    PAW_PBE O 08Apr2002                   
   VRHFIN =O: s2p4                                                                                  
   LEXCH  = PE                                                                                      
   EATOM  =   432.3788 eV,   31.7789 Ry                                                             
                                                                                                    
   TITEL  = PAW_PBE O 08Apr2002                                                                     
   LULTRA =        F    use ultrasoft PP ?                                                          
   IUNSCR =        1    unscreen: 0-lin 1-nonlin 2-no                                               
   RPACOR =    1.200    partial core radius                                                         
   POMASS =   16.000; ZVAL   =    6.000    mass and valenz                                          
   RCORE  =    1.520    outmost cutoff radius                                                       
   RWIGS  =    1.550; RWIGS  =    0.820    wigner-seitz radius (au A)                               
   ENMAX  =  400.000; ENMIN  =  300.000 eV                                                          
   ICORE  =        2    local potential                                                             
   LCOR   =        T    correct aug charges                                                         
   LPAW   =        T    paw PP                                                                      
   EAUG   =  605.392                                                                                
   DEXC   =    0.000                                                                                
   RMAX   =    1.553    core radius for proj-oper                                                   
   RAUG   =    1.300    factor for augmentation sphere                                              
   RDEP   =    1.550    radius for radial grids                                                     
   RDEPT  =    1.329    core radius for aug-charge                                                  
                                                                                                    
   Atomic configuration                                                                             
    4 entries                                                                                       
     n  l   j            E        occ.                                                              
     1  0  0.50      -514.6923   2.0000                                                             
     2  0  0.50       -23.9615   2.0000                                                             
     2  1  0.50        -9.0305   4.0000                                                             
     3  2  1.50        -9.5241   0.0000                                                             
   Description                                                                                      
     l       E           TYP  RCUT    TYP  RCUT                                                     
     0    -23.9615318     23  1.200                                                                 
     0     -9.5240782     23  1.200                                                                 
     1     -9.0304911     23  1.520                                                                 
     1      8.1634956     23  1.520                                                                 
     2     -9.5240782      7  1.500                                                                 
  local pseudopotential read in
  partial core-charges read in
  partial kinetic energy density read in
  kinetic energy density of atom read in
  atomic valenz-charges read in
  non local Contribution for L=           0  read in
    real space projection operators read in
  non local Contribution for L=           0  read in
    real space projection operators read in
  non local Contribution for L=           1  read in
    real space projection operators read in
  non local Contribution for L=           1  read in
    real space projection operators read in
    PAW grid and wavefunctions read in

   number of l-projection  operators is LMAX  =           4
   number of lm-projection operators is LMMAX =           8

 POTCAR:    PAW_PBE H 15Jun2001                   
   VRHFIN =H: ultrasoft test                                                                        
   LEXCH  = PE                                                                                      
   EATOM  =    12.4884 eV,    0.9179 Ry                                                             
                                                                                                    
   TITEL  = PAW_PBE H 15Jun2001                                                                     
   LULTRA =        F    use ultrasoft PP ?                                                          
   IUNSCR =        0    unscreen: 0-lin 1-nonlin 2-no                                               
   RPACOR =    0.000    partial core radius                                                         
   POMASS =    1.000; ZVAL   =    1.000    mass and valenz                                          
   RCORE  =    1.100    outmost cutoff radius                                                       
   RWIGS  =    0.700; RWIGS  =    0.370    wigner-seitz radius (au A)                               
   ENMAX  =  250.000; ENMIN  =  200.000 eV                                                          
   RCLOC  =    0.701    cutoff for local pot                                                        
   LCOR   =        T    correct aug charges                                                         
   LPAW   =        T    paw PP                                                                      
   EAUG   =  400.000                                                                                
   RMAX   =    1.123    core radius for proj-oper                                                   
   RAUG   =    1.200    factor for augmentation sphere                                              
   RDEP   =    1.112    radius for radial grids                                                     
   RDEPT  =    0.926    core radius for aug-charge                                                  
                                                                                                    
   Atomic configuration                                                                             
    2 entries                                                                                       
     n  l   j            E        occ.                                                              
     1  0  0.50        -6.4927   1.0000                                                             
     2  1  0.50        -3.4015   0.0000                                                             
   Description                                                                                      
     l       E           TYP  RCUT    TYP  RCUT                                                     
     0     -6.4927494     23  1.100                                                                 
     0      6.8029130     23  1.100                                                                 
     1     -4.0817478     23  1.100                                                                 
  local pseudopotential read in
  atomic valenz-charges read in
  non local Contribution for L=           0  read in
    real space projection operators read in
  non local Contribution for L=           0  read in
    real space projection operators read in
  non local Contribution for L=           1  read in
    real space projection operators read in
    PAW grid and wavefunctions read in

   number of l-projection  operators is LMAX  =           3
   number of lm-projection operators is LMMAX =           5

  PAW_PBE O 08Apr2002                   :
 energy of atom  1       EATOM= -432.3788
 kinetic energy error for atom=    0.0224 (will be added to EATOM!!)
  PAW_PBE H 15Jun2001                   :
 energy of atom  2       EATOM=  -12.4884
 kinetic energy error for atom=    0.0020 (will be added to EATOM!!)


 POSCAR:  O  H
  positions in direct lattice
  velocities in cartesian coordinates
 exchange correlation table for  LEXCH =        8
   RHO(1)=    0.500       N(1)  =     2000
   RHO(2)=  100.500       N(2)  =     4000



--------------------------------------------------------------------------------------------------------


 ion  position               nearest neighbor table
   1  0.500  0.500  0.515-   2 0.97   3 0.97
   2  0.500  0.538  0.485-   1 0.97
   3  0.500  0.462  0.485-   1 0.97

  LATTYP: Found a simple cubic cell.
 ALAT       =    20.0000000000
  
  Lattice vectors:
  
 A1 = (  20.0000000000,   0.0000000000,   0.0000000000)
 A2 = (   0.0000000000,  20.0000000000,   0.0000000000)
 A3 = (   0.0000000000,   0.0000000000,  20.0000000000)


Analysis of symmetry for initial positions (statically):
=====================================================================
 Subroutine PRICEL returns:
 Original cell was already a primitive cell.
 

 Routine SETGRP: Setting up the symmetry group for a 
 simple cubic supercell.


 Subroutine GETGRP returns: Found  4 space group operations
 (whereof  4 operations were pure point group operations)
 out of a pool of 48 trial point group operations.


The static configuration has the point symmetry C_2v.


Analysis of symmetry for dynamics (positions and initial velocities):
=====================================================================
 Subroutine PRICEL returns:
 Original cell was already a primitive cell.
 

 Routine SETGRP: Setting up the symmetry group for a 
 simple cubic supercell.


 Subroutine GETGRP returns: Found  4 space group operations
 (whereof  4 operations were pure point group operations)
 out of a pool of 48 trial point group operations.


The dynamic configuration has the point symmetry C_2v.


Analysis of structural, dynamic, and magnetic symmetry:
=====================================================================
 Subroutine PRICEL returns:
 Original cell was already a primitive cell.
 

 Routine SETGRP: Setting up the symmetry group for a 
 simple cubic supercell.


 Subroutine GETGRP returns: Found  4 space group operations
 (whereof  4 operations were pure point group operations)
 out of a pool of 48 trial point group operations.


The overall configuration has the point symmetry C_2v.


 Subroutine INISYM returns: Found  4 space group operations
 (whereof  4 operations are pure point group operations),
 and found     1 'primitive' translations


----------------------------------------------------------------------------------------

                                     Primitive cell                                     

  volume of cell :    8000.0000

  direct lattice vectors                    reciprocal lattice vectors
    20.000000000  0.000000000  0.000000000     0.050000000  0.000000000  0.000000000
     0.000000000 20.000000000  0.000000000     0.000000000  0.050000000  0.000000000
     0.000000000  0.000000000 20.000000000     0.000000000  0.000000000  0.050000000

  length of vectors
    20.000000000 20.000000000 20.000000000     0.050000000  0.050000000  0.050000000

  position of ions in fractional coordinates (direct lattice)
     0.500000000  0.500000000  0.514874459
     0.500000000  0.538425664  0.485108908
     0.500000000  0.461574336  0.485108908

  ion indices of the primitive-cell ions
   primitive index   ion index
                 1           1
                 2           2
                 3           3

----------------------------------------------------------------------------------------



 KPOINTS: k-points                                

Automatic generation of k-mesh.
 Grid dimensions read from file:
 generate k-points for:    1    1    1

 Generating k-lattice:

  Cartesian coordinates                     Fractional coordinates (reciprocal lattice)
     0.050000000  0.000000000  0.000000000     1.000000000  0.000000000  0.000000000
     0.000000000  0.050000000  0.000000000     0.000000000  1.000000000  0.000000000
     0.000000000  0.000000000  0.050000000     0.000000000  0.000000000  1.000000000

  Length of vectors
     0.050000000  0.050000000  0.050000000

  Shift w.r.t. Gamma in fractional coordinates (k-lattice)
     0.000000000  0.000000000  0.000000000

 
 Subroutine IBZKPT returns following result:
 ===========================================
 
 Found      1 irreducible k-points:
 
 Following reciprocal coordinates:
            Coordinates               Weight
  0.000000  0.000000  0.000000      1.000000
 
 Following cartesian coordinates:
            Coordinates               Weight
  0.000000  0.000000  0.000000      1.000000
 
 
 Subroutine IBZKPT_HF returns following result:
 ==============================================
 
 Found      1 k-points in 1st BZ
 the following      1 k-points will be used (e.g. in the exchange kernel)
 Following reciprocal coordinates:   # in IRBZ
  0.000000  0.000000  0.000000    1.00000000   1 t-inv F


--------------------------------------------------------------------------------------------------------




 Dimension of arrays:
   k-points           NKPTS =      1   k-points in BZ     NKDIM =      1   number of bands    NBANDS=     64
   number of dos      NEDOS =    301   number of ions     NIONS =      3
   non local maximal  LDIM  =      4   non local SUM 2l+1 LMDIM =      8
   total plane-waves  NPLWV = ******
   max r-space proj   IRMAX =      1   max aug-charges    IRDMAX=   2478
   dimension x,y,z NGX =   112 NGY =  112 NGZ =  112
   dimension x,y,z NGXF=   224 NGYF=  224 NGZF=  224
   support grid    NGXF=   224 NGYF=  224 NGZF=  224
   ions per type =               1   2
   NGX,Y,Z   is equivalent  to a cutoff of   9.31,  9.31,  9.31 a.u.
   NGXF,Y,Z  is equivalent  to a cutoff of  18.62, 18.62, 18.62 a.u.

 SYSTEM =  water                                   
 POSCAR =   O  H                                   

 Startparameter for this run:
   NWRITE =      2    write-flag & timer
   PREC   = normal    normal or accurate (medium, high low for compatibility)
   ISTART =      0    job   : 0-new  1-cont  2-samecut
   ICHARG =      2    charge: 1-file 2-atom 10-const
   ISPIN  =      2    spin polarized calculation?
   LNONCOLLINEAR =      F non collinear calculations
   LSORBIT =      F    spin-orbit coupling
   INIWAV =      1    electr: 0-lowe 1-rand  2-diag
   LASPH  =      F    aspherical Exc in radial PAW
 Electronic Relaxation 1
   ENCUT  =  500.0 eV  36.75 Ry    6.06 a.u.  36.46 36.46 36.46*2*pi/ulx,y,z
   ENINI  =  500.0     initial cutoff
   ENAUG  =  605.4 eV  augmentation charge cutoff
   NELM   =     60;   NELMIN=  2; NELMDL= -5     # of ELM steps 
   EDIFF  = 0.1E-04   stopping-criterion for ELM
   LREAL  =      F    real-space projection
   NLSPLINE    = F    spline interpolate recip. space projectors
   LCOMPAT=      F    compatible to vasp.4.4
   GGA_COMPAT  = T    GGA compatible to vasp.4.4-vasp.4.6
   LMAXPAW     = -100 max onsite density
   LMAXMIX     =    2 max onsite mixed and CHGCAR
   VOSKOWN=      0    Vosko Wilk Nusair interpolation
   ROPT   =    0.00000   0.00000
 Ionic relaxation
   EDIFFG = -.1E-01   stopping-criterion for IOM
   NSW    =     73    number of steps for IOM
   NBLOCK =      1;   KBLOCK =     73    inner block; outer block 
   IBRION =      5    ionic relax: 0-MD 1-quasi-New 2-CG
   NFREE  =      2    steps in history (QN), initial steepest desc. (CG)
   ISIF   =      2    stress and relaxation
   IWAVPR =     11    prediction:  0-non 1-charg 2-wave 3-comb
   ISYM   =      1    0-nonsym 1-usesym 2-fastsym
   LCORR  =      T    Harris-Foulkes like correction to forces

   POTIM  = 0.0150    time-step for ionic-motion
   TEIN   =    0.0    initial temperature
   TEBEG  =    0.0;   TEEND  =   0.0 temperature during run
   SMASS  =  -3.00    Nose mass-parameter (am)
   estimated Nose-frequenzy (Omega)   =  0.10E-29 period in steps = 0.42E+48 mass=  -0.914E-26a.u.
   SCALEE = 1.0000    scale energy and forces
   NPACO  =    256;   APACO  = 10.0  distance and # of slots for P.C.
   PSTRESS=    0.0 pullay stress

  Mass of Ions in am
   POMASS =  16.00  1.00
  Ionic Valenz
   ZVAL   =   6.00  1.00
  Atomic Wigner-Seitz radii
   RWIGS  =  -1.00 -1.00
  virtual crystal weights 
   VCA    =   1.00  1.00
   NELECT =       8.0000    total number of electrons
   NUPDOWN=      -1.0000    fix difference up-down

 DOS related values:
   EMIN   =  10.00;   EMAX   =-10.00  energy-range for DOS
   EFERMI =   0.00;   METHOD = LEGACY      
   ISMEAR =     0;   SIGMA  =   0.10  broadening in eV -4-tet -1-fermi 0-gaus

 Electronic relaxation 2 (details)
   IALGO  =     68    algorithm
   LDIAG  =      T    sub-space diagonalisation (order eigenvalues)
   LSUBROT=      F    optimize rotation matrix (better conditioning)
   TURBO    =      0    0=normal 1=particle mesh
   IRESTART =      0    0=no restart 2=restart with 2 vectors
   NREBOOT  =      0    no. of reboots
   NMIN     =      0    reboot dimension
   EREF     =   0.00    reference energy to select bands
   IMIX   =      4    mixing-type and parameters
     AMIX     =   0.40;   BMIX     =  1.00
     AMIX_MAG =   1.60;   BMIX_MAG =  1.00
     AMIN     =   0.10
     WC   =   100.;   INIMIX=   1;  MIXPRE=   1;  MAXMIX= -45

 Intra band minimization:
   WEIMIN = 0.0010     energy-eigenvalue tresh-hold
   EBREAK =  0.39E-07  absolut break condition
   DEPER  =   0.30     relativ break condition  

   TIME   =   0.40     timestep for ELM

  volume/ion in A,a.u.               =    2666.67     17995.55
  Fermi-wavevector in a.u.,A,eV,Ry     =   0.163710  0.309367  0.364649  0.026801
  Thomas-Fermi vector in A             =   0.862763

 Write flags
   LWAVE        =      F    write WAVECAR
   LDOWNSAMPLE  =      F    k-point downsampling of WAVECAR
   LCHARG       =      T    write CHGCAR
   LVTOT        =      F    write LOCPOT, total local potential
   LVHAR        =      F    write LOCPOT, Hartree potential only
   LELF         =      F    write electronic localiz. function (ELF)
   LORBIT       =      0    0 simple, 1 ext, 2 COOP (PROOUT), +10 PAW based schemes


 Dipole corrections
   LMONO  =      F    monopole corrections only (constant potential shift)
   LDIPOL =      F    correct potential (dipole corrections)
   IDIPOL =      0    1-x, 2-y, 3-z, 4-all directions 
   EPSILON=  1.0000000 bulk dielectric constant

 Exchange correlation treatment:
   GGA     =    --    GGA type
   LEXCH   =     8    internal setting for exchange type
   LIBXC   =     F    Libxc                    
   VOSKOWN =     0    Vosko Wilk Nusair interpolation
   LHFCALC =     F    Hartree Fock is set to
   LHFONE  =     F    Hartree Fock one center treatment
   AEXX    =    0.0000 exact exchange contribution

 Linear response parameters
   LEPSILON=     F    determine dielectric tensor
   LRPA    =     F    only Hartree local field effects (RPA)
   LNABLA  =     F    use nabla operator in PAW spheres
   LVEL    =     F    velocity operator in full k-point grid
   CSHIFT  =0.1000    complex shift for real part using Kramers Kronig
   OMEGAMAX=  -1.0    maximum frequency
   DEG_THRESHOLD= 0.2000000E-02 threshold for treating states as degnerate
   RTIME   =   -0.100 relaxation time in fs
  (WPLASMAI=    0.000 imaginary part of plasma frequency in eV, 0.658/RTIME)
   DFIELD  = 0.0000000 0.0000000 0.0000000 field for delta impulse in time

  Optional k-point grid parameters
   LKPOINTS_OPT  =     F    use optional k-point grid
   KPOINTS_OPT_MODE=     1    mode for optional k-point grid

 Orbital magnetization related:
   ORBITALMAG=     F  switch on orbital magnetization
   LCHIMAG   =     F  perturbation theory with respect to B field
   DQ        =  0.001000  dq finite difference perturbation B field
   LLRAUG    =     F  two centre corrections for induced B field
   LBONE     =     F  B-component reconstruction in AE one-centre
   LVGVCALC  =     T  calculate vGv susceptibility
   LVGVAPPL  =     F  apply vGv susceptibility instead of pGv for G=0

 Random number generation:
   RANDOM_GENERATOR = DEFAULT
   PCG_SEED         = not used


--------------------------------------------------------------------------------------------------------


 finite differences
 charge density and potential will be updated during run
 spin polarized calculation
 RMM-DIIS sequential band-by-band and
  variant of blocked Davidson during initial phase
 perform sub-space diagonalisation
    before iterative eigenvector-optimisation
 modified Broyden-mixing scheme, WC =      100.0
 initial mixing is a Kerker type mixing with AMIX =  0.4000 and BMIX =      1.0000
 Hartree-type preconditioning will be used
 using additional bands           60
 reciprocal scheme for non local part
 use partial core corrections
 calculate Harris-corrections to forces   (improved forces if not selfconsistent)
 use gradient corrections 
 use of overlap-Matrix (Vanderbilt PP)
 Gauss-broadening in eV      SIGMA  =   0.10


--------------------------------------------------------------------------------------------------------


  energy-cutoff  :      500.00
  volume of cell :     8000.00
      direct lattice vectors                 reciprocal lattice vectors
    20.000000000  0.000000000  0.000000000     0.050000000  0.000000000  0.000000000
     0.000000000 20.000000000  0.000000000     0.000000000  0.050000000  0.000000000
     0.000000000  0.000000000 20.000000000     0.000000000  0.000000000  0.050000000

  length of vectors
    20.000000000 20.000000000 20.000000000     0.050000000  0.050000000  0.050000000



 k-points in units of 2pi/SCALE and weight: k-points                                
   0.00000000  0.00000000  0.00000000       1.000

 k-points in reciprocal lattice and weights: k-points                                
   0.00000000  0.00000000  0.00000000       1.000

 position of ions in fractional coordinates (direct lattice) 
   0.50000000  0.50000000  0.51487446
   0.50000000  0.53842566  0.48510891
   0.50000000  0.46157434  0.48510891

 position of ions in cartesian coordinates  (Angst):
  10.00000000 10.00000000 10.29748918
  10.00000000 10.76851327  9.70217816
  10.00000000  9.23148673  9.70217816



--------------------------------------------------------------------------------------------------------


 k-point   1 :   0.0000 0.0000 0.0000  plane waves:  203269

 maximum and minimum number of plane-waves per node :    203269   203269

 maximum number of plane-waves:    203269
 maximum index in each direction: 
   IXMAX=   36   IYMAX=   36   IZMAX=   36
   IXMIN=  -36   IYMIN=  -36   IZMIN=  -36


 serial   3D FFT for wavefunctions
 parallel 3D FFT for charge:
    minimum data exchange during FFTs selected (reduces bandwidth)


 total amount of memory used by VASP MPI-rank0   213570. kBytes
=======================================================================

   base      :      30000. kBytes
   nonl-proj :      35785. kBytes
   fftplans  :      12293. kBytes
   grid      :     128966. kBytes
   one-center:         18. kBytes
   wavefun   :       6508. kBytes

     INWAV:  cpu time      0.0001: real time      0.0005
 Broyden mixing: mesh for mixing (old mesh)
   NGX = 73   NGY = 73   NGZ = 73
  (NGX  =224   NGY  =224   NGZ  =224)
  gives a total of 389017 points

 initial charge density was supplied:
 charge density of overlapping atoms calculated
 number of electron       8.0000000 magnetization       3.0000000
 keeping initial charge density in first step


--------------------------------------------------------------------------------------------------------


 Maximum index for augmentation-charges            0 (set IRDMAX)


--------------------------------------------------------------------------------------------------------


 First call to EWALD:  gamma=   0.089
 Maximum number of real-space cells 3x 3x 3
 Maximum number of reciprocal cells 3x 3x 3

    FEWALD:  cpu time      0.0048: real time      0.0048


--------------------------------------- Ionic step        1  -------------------------------------------




--------------------------------------- Iteration      1(   1)  ---------------------------------------


    POTLOK:  cpu time      0.4508: real time      0.4564
    SETDIJ:  cpu time      0.0054: real time      0.0053
     EDDAV:  cpu time      2.8658: real time      2.8744
       DOS:  cpu time      0.0023: real time      0.0025
    --------------------------------------------
      LOOP:  cpu time      3.3243: real time      3.3387

 eigenvalue-minimisations  :   384
 total energy-change (2. order) : 0.5115785E+02  (-0.1452455E+03)
 number of electron       8.0000000 magnetization       3.0000000
 augmentation part        8.0000000 magnetization       3.0000000

 Free energy of the ion-electron system (eV)
  ---------------------------------------------------
  alpha Z        PSCENC =         0.02803141
  Ewald energy   TEWEN  =       121.80403282
  -Hartree energ DENC   =      -480.69225902
  -exchange      EXHF   =         0.00000000
  -V(xc)+E(xc)   XCENC  =        32.99157130
  PAW double counting   =       349.99468356     -351.80531939
  entropy T*S    EENTRO =        -0.02119455
  eigenvalues    EBANDS =       -78.47099269
  atomic energy  EATOM  =       457.32929435
  Solvation  Ediel_sol  =         0.00000000
  ---------------------------------------------------
  free energy    TOTEN  =        51.15784780 eV

  energy without entropy =       51.17904235  energy(sigma->0) =       51.16844507


--------------------------------------------------------------------------------------------------------




--------------------------------------- Iteration      1(   2)  ---------------------------------------


     EDDAV:  cpu time      2.9782: real time      2.9824
       DOS:  cpu time      0.0003: real time      0.0005
    --------------------------------------------
      LOOP:  cpu time      2.9786: real time      2.9829

 eigenvalue-minimisations  :   384
 total energy-change (2. order) :-0.6216373E+02  (-0.5505128E+02)
 number of electron       8.0000000 magnetization       3.0000000
 augmentation part        8.0000000 magnetization       3.0000000

 Free energy of the ion-electron system (eV)
  ---------------------------------------------------
  alpha Z        PSCENC =         0.02803141
  Ewald energy   TEWEN  =       121.80403282
  -Hartree energ DENC   =      -480.69225902
  -exchange      EXHF   =         0.00000000
  -V(xc)+E(xc)   XCENC  =        32.99157130
  PAW double counting   =       349.99468356     -351.80531939
  entropy T*S    EENTRO =        -0.00000000
  eigenvalues    EBANDS =      -140.65591251
  atomic energy  EATOM  =       457.32929435
  Solvation  Ediel_sol  =         0.00000000
  ---------------------------------------------------
  free energy    TOTEN  =       -11.00587748 eV

  energy without entropy =      -11.00587748  energy(sigma->0) =      -11.00587748


--------------------------------------------------------------------------------------------------------




--------------------------------------- Iteration      1(   3)  ---------------------------------------


     EDDAV:  cpu time      2.0871: real time      2.0891
       DOS:  cpu time      0.0010: real time      0.0012
    --------------------------------------------
      LOOP:  cpu time      2.0881: real time      2.0903

 eigenvalue-minimisations  :   256
 total energy-change (2. order) :-0.1903067E+01  (-0.1903067E+01)
 number of electron       8.0000000 magnetization       3.0000000
 augmentation part        8.0000000 magnetization       3.0000000

 Free energy of the ion-electron system (eV)
  ---------------------------------------------------
  alpha Z        PSCENC =         0.02803141
  Ewald energy   TEWEN  =       121.80403282
  -Hartree energ DENC   =      -480.69225902
  -exchange      EXHF   =         0.00000000
  -V(xc)+E(xc)   XCENC  =        32.99157130
  PAW double counting   =       349.99468356     -351.80531939
  entropy T*S    EENTRO =        -0.00000000
  eigenvalues    EBANDS =      -142.55897908
  atomic energy  EATOM  =       457.32929435
  Solvation  Ediel_sol  =         0.00000000
  ---------------------------------------------------
  free energy    TOTEN  =       -12.90894404 eV

  energy without entropy =      -12.90894404  energy(sigma->0) =      -12.90894404


--------------------------------------------------------------------------------------------------------




--------------------------------------- Iteration      1(   4)  ---------------------------------------


     EDDAV:  cpu time      3.0141: real time      3.0157
       DOS:  cpu time      0.0003: real time      0.0005
    --------------------------------------------
      LOOP:  cpu time      3.0144: real time      3.0163

 eigenvalue-minimisations  :   384
 total energy-change (2. order) :-0.1190955E-01  (-0.1190955E-01)
 number of electron       8.0000000 magnetization       3.0000000
 augmentation part        8.0000000 magnetization       3.0000000

 Free energy of the ion-electron system (eV)
  ---------------------------------------------------
  alpha Z        PSCENC =         0.02803141
  Ewald energy   TEWEN  =       121.80403282
  -Hartree energ DENC   =      -480.69225902
  -exchange      EXHF   =         0.00000000
  -V(xc)+E(xc)   XCENC  =        32.99157130
  PAW double counting   =       349.99468356     -351.80531939
  entropy T*S    EENTRO =        -0.00000000
  eigenvalues    EBANDS =      -142.57088862
  atomic energy  EATOM  =       457.32929435
  Solvation  Ediel_sol  =         0.00000000
  ---------------------------------------------------
  free energy    TOTEN  =       -12.92085359 eV

  energy without entropy =      -12.92085359  energy(sigma->0) =      -12.92085359


--------------------------------------------------------------------------------------------------------




--------------------------------------- Iteration      1(   5)  ---------------------------------------


     EDDAV:  cpu time      2.9443: real time      2.9493
       DOS:  cpu time      0.0003: real time      0.0009
    CHARGE:  cpu time      2.4349: real time      2.4359
    MIXING:  cpu time      0.0795: real time      0.0797
    --------------------------------------------
      LOOP:  cpu time      5.4591: real time      5.4658

 eigenvalue-minimisations  :   384
 total energy-change (2. order) :-0.3462954E-04  (-0.3462927E-04)
 number of electron       8.0000016 magnetization       2.5688152
 augmentation part        0.8581118 magnetization       2.5431586

 Broyden mixing:
  rms(total) = 0.13960E+01    rms(broyden)= 0.13955E+01
  rms(prec ) = 0.14500E+01
  weight for this iteration     100.00

 Free energy of the ion-electron system (eV)
  ---------------------------------------------------
  alpha Z        PSCENC =         0.02803141
  Ewald energy   TEWEN  =       121.80403282
  -Hartree energ DENC   =      -480.69225902
  -exchange      EXHF   =         0.00000000
  -V(xc)+E(xc)   XCENC  =        32.99157130
  PAW double counting   =       349.99468356     -351.80531939
  entropy T*S    EENTRO =        -0.00000000
  eigenvalues    EBANDS =      -142.57092325
  atomic energy  EATOM  =       457.32929435
  Solvation  Ediel_sol  =         0.00000000
  ---------------------------------------------------
  free energy    TOTEN  =       -12.92088822 eV

  energy without entropy =      -12.92088822  energy(sigma->0) =      -12.92088822


--------------------------------------------------------------------------------------------------------




--------------------------------------- Iteration      1(   6)  ---------------------------------------


    POTLOK:  cpu time      0.4623: real time      0.4634
    SETDIJ:  cpu time      0.0048: real time      0.0048
    EDDIAG:  cpu time      0.4341: real time      0.4344
  RMM-DIIS:  cpu time      1.7173: real time      1.7181
    ORTHCH:  cpu time      0.0700: real time      0.0700
       DOS:  cpu time      0.0012: real time      0.0017
    CHARGE:  cpu time      2.5110: real time      2.5116
    MIXING:  cpu time      0.0681: real time      0.0682
    --------------------------------------------
      LOOP:  cpu time      5.2688: real time      5.2722

 eigenvalue-minimisations  :   256
 total energy-change (2. order) : 0.9088449E+01  (-0.1565467E+01)
 number of electron       8.0000015 magnetization       2.2075990
 augmentation part        0.7622615 magnetization       2.1130151

 Broyden mixing:
  rms(total) = 0.42400E+00    rms(broyden)= 0.42375E+00
  rms(prec ) = 0.44954E+00
  weight for this iteration     100.00

 eigenvalues of (default mixing * dielectric matrix)
  average eigenvalue GAMMA=   0.8922
  0.8922

 Free energy of the ion-electron system (eV)
  ---------------------------------------------------
  alpha Z        PSCENC =         0.02803141
  Ewald energy   TEWEN  =       121.80403282
  -Hartree energ DENC   =      -506.85538765
  -exchange      EXHF   =         0.00000000
  -V(xc)+E(xc)   XCENC  =        42.09600706
  PAW double counting   =       449.16098925     -451.38388029
  entropy T*S    EENTRO =        -0.00000000
  eigenvalues    EBANDS =      -116.01152648
  atomic energy  EATOM  =       457.32929435
  Solvation  Ediel_sol  =         0.00000000
  ---------------------------------------------------
  free energy    TOTEN  =        -3.83243954 eV

  energy without entropy =       -3.83243954  energy(sigma->0) =       -3.83243954


--------------------------------------------------------------------------------------------------------




--------------------------------------- Iteration      1(   7)  ---------------------------------------


    POTLOK:  cpu time      0.4751: real time      0.4808
    SETDIJ:  cpu time      0.0043: real time      0.0043
    EDDIAG:  cpu time      0.3885: real time      0.3926
  RMM-DIIS:  cpu time      1.7748: real time      1.7946
    ORTHCH:  cpu time      0.0752: real time      0.0777
       DOS:  cpu time      0.0007: real time      0.0012
    CHARGE:  cpu time      2.5165: real time      2.5173
    MIXING:  cpu time      0.0810: real time      0.0811
    --------------------------------------------
      LOOP:  cpu time      5.3159: real time      5.3495

 eigenvalue-minimisations  :   257
 total energy-change (2. order) :-0.7135642E+01  (-0.9164616E+00)
 number of electron       8.0000013 magnetization       2.0055512
 augmentation part        0.6934186 magnetization       1.9415457

 Broyden mixing:
  rms(total) = 0.35202E+00    rms(broyden)= 0.35176E+00
  rms(prec ) = 0.36308E+00
  weight for this iteration     100.00

 eigenvalues of (default mixing * dielectric matrix)
  average eigenvalue GAMMA=   0.7719
  0.7719  0.7719

 Free energy of the ion-electron system (eV)
  ---------------------------------------------------
  alpha Z        PSCENC =         0.02803141
  Ewald energy   TEWEN  =       121.80403282
  -Hartree energ DENC   =      -516.19338023
  -exchange      EXHF   =         0.00000000
  -V(xc)+E(xc)   XCENC  =        36.99448427
  PAW double counting   =       503.27767290     -505.56311169
  entropy T*S    EENTRO =        -0.00000000
  eigenvalues    EBANDS =      -108.64510548
  atomic energy  EATOM  =       457.32929435
  Solvation  Ediel_sol  =         0.00000000
  ---------------------------------------------------
  free energy    TOTEN  =       -10.96808164 eV

  energy without entropy =      -10.96808164  energy(sigma->0) =      -10.96808164


--------------------------------------------------------------------------------------------------------




--------------------------------------- Iteration      1(   8)  ---------------------------------------


    POTLOK:  cpu time      0.4961: real time      0.5013
    SETDIJ:  cpu time      0.0060: real time      0.0060
    EDDIAG:  cpu time      0.4033: real time      0.4108
  RMM-DIIS:  cpu time      1.6975: real time      1.7190
    ORTHCH:  cpu time      0.0650: real time      0.0650
       DOS:  cpu time      0.0021: real time      0.0026
    CHARGE:  cpu time      2.3758: real time      2.3767
    MIXING:  cpu time      0.0634: real time      0.0634
    --------------------------------------------
      LOOP:  cpu time      5.1092: real time      5.1448

 eigenvalue-minimisations  :   256
 total energy-change (2. order) :-0.2968283E+00  (-0.9656807E-01)
 number of electron       8.0000013 magnetization       1.4999194
 augmentation part        0.6863304 magnetization       1.4515743

 Broyden mixing:
  rms(total) = 0.27556E+00    rms(broyden)= 0.27554E+00
  rms(prec ) = 0.28569E+00
  weight for this iteration     100.00

 eigenvalues of (default mixing * dielectric matrix)
  average eigenvalue GAMMA=   1.0382
  1.1878  1.1878  0.7391

 Free energy of the ion-electron system (eV)
  ---------------------------------------------------
  alpha Z        PSCENC =         0.02803141
  Ewald energy   TEWEN  =       121.80403282
  -Hartree energ DENC   =      -515.19860451
  -exchange      EXHF   =         0.00000000
  -V(xc)+E(xc)   XCENC  =        36.67155559
  PAW double counting   =       514.59155715     -516.81693249
  entropy T*S    EENTRO =        -0.00000000
  eigenvalues    EBANDS =      -109.67384425
  atomic energy  EATOM  =       457.32929435
  Solvation  Ediel_sol  =         0.00000000
  ---------------------------------------------------
  free energy    TOTEN  =       -11.26490992 eV

  energy without entropy =      -11.26490992  energy(sigma->0) =      -11.26490992


--------------------------------------------------------------------------------------------------------




--------------------------------------- Iteration      1(   9)  ---------------------------------------


    POTLOK:  cpu time      0.4343: real time      0.4348
    SETDIJ:  cpu time      0.0043: real time      0.0043
    EDDIAG:  cpu time      0.3780: real time      0.3783
  RMM-DIIS:  cpu time      1.7199: real time      1.7211
    ORTHCH:  cpu time      0.0543: real time      0.0543
       DOS:  cpu time      0.0006: real time      0.0011
    CHARGE:  cpu time      2.3787: real time      2.3794
    MIXING:  cpu time      0.0727: real time      0.0727
    --------------------------------------------
      LOOP:  cpu time      5.0428: real time      5.0460

 eigenvalue-minimisations  :   256
 total energy-change (2. order) :-0.1162305E+01  (-0.1075799E+00)
 number of electron       8.0000014 magnetization       1.1373152
 augmentation part        0.7114150 magnetization       1.1120660

 Broyden mixing:
  rms(total) = 0.11763E+00    rms(broyden)= 0.11755E+00
  rms(prec ) = 0.12583E+00
  weight for this iteration     100.00

 eigenvalues of (default mixing * dielectric matrix)
  average eigenvalue GAMMA=   1.1814
  2.1445  1.0906  0.8304  0.6599

 Free energy of the ion-electron system (eV)
  ---------------------------------------------------
  alpha Z        PSCENC =         0.02803141
  Ewald energy   TEWEN  =       121.80403282
  -Hartree energ DENC   =      -511.81876077
  -exchange      EXHF   =         0.00000000
  -V(xc)+E(xc)   XCENC  =        35.50190981
  PAW double counting   =       533.23457972     -535.31372389
  entropy T*S    EENTRO =        -0.00000000
  eigenvalues    EBANDS =      -113.19257861
  atomic energy  EATOM  =       457.32929435
  Solvation  Ediel_sol  =         0.00000000
  ---------------------------------------------------
  free energy    TOTEN  =       -12.42721516 eV

  energy without entropy =      -12.42721516  energy(sigma->0) =      -12.42721516


--------------------------------------------------------------------------------------------------------




--------------------------------------- Iteration      1(  10)  ---------------------------------------


    POTLOK:  cpu time      0.4806: real time      0.4815
    SETDIJ:  cpu time      0.0048: real time      0.0048
    EDDIAG:  cpu time      0.3962: real time      0.3964
  RMM-DIIS:  cpu time      1.7236: real time      1.7244
    ORTHCH:  cpu time      0.0534: real time      0.0536
       DOS:  cpu time      0.0006: real time      0.0010
    CHARGE:  cpu time      2.3904: real time      2.3912
    MIXING:  cpu time      0.0702: real time      0.0702
    --------------------------------------------
      LOOP:  cpu time      5.1198: real time      5.1231

 eigenvalue-minimisations  :   256
 total energy-change (2. order) :-0.6285430E+00  (-0.4067215E-01)
 number of electron       8.0000014 magnetization       1.0603125
 augmentation part        0.7126834 magnetization       1.0443306

 Broyden mixing:
  rms(total) = 0.11611E+00    rms(broyden)= 0.11609E+00
  rms(prec ) = 0.12393E+00
  weight for this iteration     100.00

 eigenvalues of (default mixing * dielectric matrix)
  average eigenvalue GAMMA=   1.0610
  2.1492  0.8935  0.8244  0.8244  0.6132

 Free energy of the ion-electron system (eV)
  ---------------------------------------------------
  alpha Z        PSCENC =         0.02803141
  Ewald energy   TEWEN  =       121.80403282
  -Hartree energ DENC   =      -513.70091404
  -exchange      EXHF   =         0.00000000
  -V(xc)+E(xc)   XCENC  =        35.08329173
  PAW double counting   =       551.68450220     -553.75376098
  entropy T*S    EENTRO =        -0.00000000
  eigenvalues    EBANDS =      -111.53023566
  atomic energy  EATOM  =       457.32929435
  Solvation  Ediel_sol  =         0.00000000
  ---------------------------------------------------
  free energy    TOTEN  =       -13.05575816 eV

  energy without entropy =      -13.05575816  energy(sigma->0) =      -13.05575816


--------------------------------------------------------------------------------------------------------




--------------------------------------- Iteration      1(  11)  ---------------------------------------


    POTLOK:  cpu time      0.4558: real time      0.4563
    SETDIJ:  cpu time      0.0050: real time      0.0050
    EDDIAG:  cpu time      0.3795: real time      0.3798
  RMM-DIIS:  cpu time      1.7176: real time      1.7186
    ORTHCH:  cpu time      0.0562: real time      0.0562
       DOS:  cpu time      0.0011: real time      0.0017
    CHARGE:  cpu time      2.4484: real time      2.4490
    MIXING:  cpu time      0.0807: real time      0.0808
    --------------------------------------------
      LOOP:  cpu time      5.1443: real time      5.1475

 eigenvalue-minimisations  :   256
 total energy-change (2. order) :-0.4121007E-01  (-0.1578013E-01)
 number of electron       8.0000014 magnetization       0.9470766
 augmentation part        0.7019048 magnetization       0.9354643

 Broyden mixing:
  rms(total) = 0.57537E-01    rms(broyden)= 0.57511E-01
  rms(prec ) = 0.61239E-01
  weight for this iteration     100.00

 eigenvalues of (default mixing * dielectric matrix)
  average eigenvalue GAMMA=   1.0281
  2.1156  1.1673  0.7587  0.7587  0.7049  0.6634

 Free energy of the ion-electron system (eV)
  ---------------------------------------------------
  alpha Z        PSCENC =         0.02803141
  Ewald energy   TEWEN  =       121.80403282
  -Hartree energ DENC   =      -515.51729333
  -exchange      EXHF   =         0.00000000
  -V(xc)+E(xc)   XCENC  =        35.13075184
  PAW double counting   =       553.05932698     -555.16376354
  entropy T*S    EENTRO =        -0.00000000
  eigenvalues    EBANDS =      -109.76734876
  atomic energy  EATOM  =       457.32929435
  Solvation  Ediel_sol  =         0.00000000
  ---------------------------------------------------
  free energy    TOTEN  =       -13.09696823 eV

  energy without entropy =      -13.09696823  energy(sigma->0) =      -13.09696823


--------------------------------------------------------------------------------------------------------




--------------------------------------- Iteration      1(  12)  ---------------------------------------


    POTLOK:  cpu time      0.4969: real time      0.4978
    SETDIJ:  cpu time      0.0062: real time      0.0062
    EDDIAG:  cpu time      0.4122: real time      0.4122
  RMM-DIIS:  cpu time      1.7772: real time      1.7780
    ORTHCH:  cpu time      0.0547: real time      0.0547
       DOS:  cpu time      0.0007: real time      0.0013
    CHARGE:  cpu time      2.4801: real time      2.4807
    MIXING:  cpu time      0.0820: real time      0.0820
    --------------------------------------------
      LOOP:  cpu time      5.3099: real time      5.3129

 eigenvalue-minimisations  :   257
 total energy-change (2. order) :-0.5075359E-01  (-0.5802722E-02)
 number of electron       8.0000014 magnetization       0.6644723
 augmentation part        0.6953911 magnetization       0.6574380

 Broyden mixing:
  rms(total) = 0.35561E-01    rms(broyden)= 0.35518E-01
  rms(prec ) = 0.38123E-01
  weight for this iteration     100.00

 eigenvalues of (default mixing * dielectric matrix)
  average eigenvalue GAMMA=   1.0999
  1.9103  1.5842  1.0060  1.0060  0.7835  0.7835  0.6257

 Free energy of the ion-electron system (eV)
  ---------------------------------------------------
  alpha Z        PSCENC =         0.02803141
  Ewald energy   TEWEN  =       121.80403282
  -Hartree energ DENC   =      -515.77809294
  -exchange      EXHF   =         0.00000000
  -V(xc)+E(xc)   XCENC  =        35.08697013
  PAW double counting   =       550.45469264     -552.56459129
  entropy T*S    EENTRO =        -0.00000000
  eigenvalues    EBANDS =      -109.50805894
  atomic energy  EATOM  =       457.32929435
  Solvation  Ediel_sol  =         0.00000000
  ---------------------------------------------------
  free energy    TOTEN  =       -13.14772182 eV

  energy without entropy =      -13.14772182  energy(sigma->0) =      -13.14772182


--------------------------------------------------------------------------------------------------------




--------------------------------------- Iteration      1(  13)  ---------------------------------------


    POTLOK:  cpu time      0.5401: real time      0.5427
    SETDIJ:  cpu time      0.0054: real time      0.0054
    EDDIAG:  cpu time      0.4111: real time      0.4111
  RMM-DIIS:  cpu time      1.7161: real time      1.7168
    ORTHCH:  cpu time      0.0572: real time      0.0572
       DOS:  cpu time      0.0006: real time      0.0011
    CHARGE:  cpu time      2.5052: real time      2.5059
    MIXING:  cpu time      0.0713: real time      0.0713
    --------------------------------------------
      LOOP:  cpu time      5.3070: real time      5.3116

 eigenvalue-minimisations  :   256
 total energy-change (2. order) :-0.2384878E+00  (-0.5429835E-02)
 number of electron       8.0000014 magnetization       0.4204520
 augmentation part        0.6895684 magnetization       0.4146251

 Broyden mixing:
  rms(total) = 0.34527E-01    rms(broyden)= 0.34514E-01
  rms(prec ) = 0.36711E-01
  weight for this iteration     100.00

 eigenvalues of (default mixing * dielectric matrix)
  average eigenvalue GAMMA=   1.1623
  2.1958  2.1958  1.1591  0.8688  0.8688  0.7469  0.6603  0.6031

 Free energy of the ion-electron system (eV)
  ---------------------------------------------------
  alpha Z        PSCENC =         0.02803141
  Ewald energy   TEWEN  =       121.80403282
  -Hartree energ DENC   =      -516.47189218
  -exchange      EXHF   =         0.00000000
  -V(xc)+E(xc)   XCENC  =        34.89748210
  PAW double counting   =       547.54418506     -549.66121669
  entropy T*S    EENTRO =        -0.00000000
  eigenvalues    EBANDS =      -108.85612649
  atomic energy  EATOM  =       457.32929435
  Solvation  Ediel_sol  =         0.00000000
  ---------------------------------------------------
  free energy    TOTEN  =       -13.38620963 eV

  energy without entropy =      -13.38620963  energy(sigma->0) =      -13.38620963


--------------------------------------------------------------------------------------------------------




--------------------------------------- Iteration      1(  14)  ---------------------------------------


    POTLOK:  cpu time      0.4963: real time      0.4970
    SETDIJ:  cpu time      0.0053: real time      0.0053
    EDDIAG:  cpu time      0.3990: real time      0.4024
  RMM-DIIS:  cpu time      1.7160: real time      1.7167
    ORTHCH:  cpu time      0.0531: real time      0.0531
       DOS:  cpu time      0.0007: real time      0.0011
    CHARGE:  cpu time      2.3828: real time      2.3837
    MIXING:  cpu time      0.0890: real time      0.0890
    --------------------------------------------
      LOOP:  cpu time      5.1421: real time      5.1483

 eigenvalue-minimisations  :   256
 total energy-change (2. order) :-0.3370398E+00  (-0.3609370E-02)
 number of electron       8.0000014 magnetization       0.2520148
 augmentation part        0.6858980 magnetization       0.2475287

 Broyden mixing:
  rms(total) = 0.44901E-01    rms(broyden)= 0.44898E-01
  rms(prec ) = 0.47982E-01
  weight for this iteration     100.00

 eigenvalues of (default mixing * dielectric matrix)
  average eigenvalue GAMMA=   1.3116
  3.7396  2.0341  1.0028  1.0028  1.1779  0.7685  0.7685  0.6549  0.6549

 Free energy of the ion-electron system (eV)
  ---------------------------------------------------
  alpha Z        PSCENC =         0.02803141
  Ewald energy   TEWEN  =       121.80403282
  -Hartree energ DENC   =      -516.91809763
  -exchange      EXHF   =         0.00000000
  -V(xc)+E(xc)   XCENC  =        34.58927863
  PAW double counting   =       547.00809564     -549.12713335
  entropy T*S    EENTRO =        -0.00000000
  eigenvalues    EBANDS =      -108.43675131
  atomic energy  EATOM  =       457.32929435
  Solvation  Ediel_sol  =         0.00000000
  ---------------------------------------------------
  free energy    TOTEN  =       -13.72324944 eV

  energy without entropy =      -13.72324944  energy(sigma->0) =      -13.72324944


--------------------------------------------------------------------------------------------------------




--------------------------------------- Iteration      1(  15)  ---------------------------------------


    POTLOK:  cpu time      0.5065: real time      0.5070
    SETDIJ:  cpu time      0.0049: real time      0.0049
    EDDIAG:  cpu time      0.4018: real time      0.4053
  RMM-DIIS:  cpu time      1.7180: real time      1.7189
    ORTHCH:  cpu time      0.0539: real time      0.0539
       DOS:  cpu time      0.0007: real time      0.0012
    CHARGE:  cpu time      2.5109: real time      2.5117
    MIXING:  cpu time      0.0817: real time      0.0817
    --------------------------------------------
      LOOP:  cpu time      5.2783: real time      5.2846

 eigenvalue-minimisations  :   256
 total energy-change (2. order) :-0.2471209E+00  (-0.1783899E-02)
 number of electron       8.0000014 magnetization       0.1252346
 augmentation part        0.6887165 magnetization       0.1221329

 Broyden mixing:
  rms(total) = 0.18498E-01    rms(broyden)= 0.18496E-01
  rms(prec ) = 0.19877E-01
  weight for this iteration     100.00

 eigenvalues of (default mixing * dielectric matrix)
  average eigenvalue GAMMA=   1.3981
  4.5382  2.0400  1.3497  1.3497  0.9114  0.9114  0.7973  0.7973  0.6565  0.6290

 Free energy of the ion-electron system (eV)
  ---------------------------------------------------
  alpha Z        PSCENC =         0.02803141
  Ewald energy   TEWEN  =       121.80403282
  -Hartree energ DENC   =      -516.17059904
  -exchange      EXHF   =         0.00000000
  -V(xc)+E(xc)   XCENC  =        34.29901872
  PAW double counting   =       546.11013718     -548.21183831
  entropy T*S    EENTRO =        -0.00000000
  eigenvalues    EBANDS =      -109.15844743
  atomic energy  EATOM  =       457.32929435
  Solvation  Ediel_sol  =         0.00000000
  ---------------------------------------------------
  free energy    TOTEN  =       -13.97037030 eV

  energy without entropy =      -13.97037030  energy(sigma->0) =      -13.97037030


--------------------------------------------------------------------------------------------------------




--------------------------------------- Iteration      1(  16)  ---------------------------------------


    POTLOK:  cpu time      0.4971: real time      0.4981
    SETDIJ:  cpu time      0.0054: real time      0.0054
    EDDIAG:  cpu time      0.3943: real time      0.3944
  RMM-DIIS:  cpu time      1.7234: real time      1.7242
    ORTHCH:  cpu time      0.0542: real time      0.0542
       DOS:  cpu time      0.0006: real time      0.0010
    CHARGE:  cpu time      2.3930: real time      2.3938
    MIXING:  cpu time      0.0746: real time      0.0747
    --------------------------------------------
      LOOP:  cpu time      5.1426: real time      5.1458

 eigenvalue-minimisations  :   256
 total energy-change (2. order) :-0.1400756E+00  (-0.3164294E-02)
 number of electron       8.0000014 magnetization       0.0536347
 augmentation part        0.6948254 magnetization       0.0531574

 Broyden mixing:
  rms(total) = 0.25417E-01    rms(broyden)= 0.25405E-01
  rms(prec ) = 0.27147E-01
  weight for this iteration     100.00

 eigenvalues of (default mixing * dielectric matrix)
  average eigenvalue GAMMA=   1.4489
  5.2420  2.2311  1.3720  1.3720  1.0137  1.0137  0.8182  0.8182  0.7869  0.6348
  0.6348

 Free energy of the ion-electron system (eV)
  ---------------------------------------------------
  alpha Z        PSCENC =         0.02803141
  Ewald energy   TEWEN  =       121.80403282
  -Hartree energ DENC   =      -515.20704988
  -exchange      EXHF   =         0.00000000
  -V(xc)+E(xc)   XCENC  =        34.10866293
  PAW double counting   =       544.53882135     -546.62199724
  entropy T*S    EENTRO =        -0.00000000
  eigenvalues    EBANDS =      -110.09024169
  atomic energy  EATOM  =       457.32929435
  Solvation  Ediel_sol  =         0.00000000
  ---------------------------------------------------
  free energy    TOTEN  =       -14.11044595 eV

  energy without entropy =      -14.11044595  energy(sigma->0) =      -14.11044595


--------------------------------------------------------------------------------------------------------




--------------------------------------- Iteration      1(  17)  ---------------------------------------


    POTLOK:  cpu time      0.4561: real time      0.4579
    SETDIJ:  cpu time      0.0052: real time      0.0052
    EDDIAG:  cpu time      0.3782: real time      0.3785
  RMM-DIIS:  cpu time      1.7178: real time      1.7186
    ORTHCH:  cpu time      0.0547: real time      0.0547
       DOS:  cpu time      0.0006: real time      0.0010
    CHARGE:  cpu time      2.5212: real time      2.5220
    MIXING:  cpu time      0.0874: real time      0.0875
    --------------------------------------------
      LOOP:  cpu time      5.2211: real time      5.2254

 eigenvalue-minimisations  :   256
 total energy-change (2. order) :-0.6338364E-01  (-0.4688468E-03)
 number of electron       8.0000014 magnetization       0.0237734
 augmentation part        0.6934223 magnetization       0.0241398

 Broyden mixing:
  rms(total) = 0.16260E-01    rms(broyden)= 0.16258E-01
  rms(prec ) = 0.16975E-01
  weight for this iteration     100.00

 eigenvalues of (default mixing * dielectric matrix)
  average eigenvalue GAMMA=   1.4890
  5.8448  2.5767  1.2758  1.2758  1.3606  0.9087  0.9087  1.0111  0.7846  0.6366
  0.6425  0.6425

 Free energy of the ion-electron system (eV)
  ---------------------------------------------------
  alpha Z        PSCENC =         0.02803141
  Ewald energy   TEWEN  =       121.80403282
  -Hartree energ DENC   =      -515.53721603
  -exchange      EXHF   =         0.00000000
  -V(xc)+E(xc)   XCENC  =        34.06038438
  PAW double counting   =       544.42592113     -546.51647893
  entropy T*S    EENTRO =        -0.00000000
  eigenvalues    EBANDS =      -109.76779871
  atomic energy  EATOM  =       457.32929435
  Solvation  Ediel_sol  =         0.00000000
  ---------------------------------------------------
  free energy    TOTEN  =       -14.17382959 eV

  energy without entropy =      -14.17382959  energy(sigma->0) =      -14.17382959


--------------------------------------------------------------------------------------------------------




--------------------------------------- Iteration      1(  18)  ---------------------------------------


    POTLOK:  cpu time      0.4975: real time      0.5019
    SETDIJ:  cpu time      0.0046: real time      0.0046
    EDDIAG:  cpu time      0.3780: real time      0.3782
  RMM-DIIS:  cpu time      1.7774: real time      1.7780
    ORTHCH:  cpu time      0.0540: real time      0.0540
       DOS:  cpu time      0.0005: real time      0.0010
    CHARGE:  cpu time      2.5827: real time      2.5945
    MIXING:  cpu time      0.0789: real time      0.0805
    --------------------------------------------
      LOOP:  cpu time      5.3736: real time      5.3927

 eigenvalue-minimisations  :   257
 total energy-change (2. order) :-0.2257858E-01  (-0.4975139E-03)
 number of electron       8.0000014 magnetization       0.0097864
 augmentation part        0.6907324 magnetization       0.0104495

 Broyden mixing:
  rms(total) = 0.63477E-02    rms(broyden)= 0.63373E-02
  rms(prec ) = 0.67264E-02
  weight for this iteration     100.00

 eigenvalues of (default mixing * dielectric matrix)
  average eigenvalue GAMMA=   1.4976
  6.1636  2.7638  1.7999  1.1055  1.1055  0.9265  0.9265  1.1556  0.7841  0.7444
  0.7444  0.6042  0.6453

 Free energy of the ion-electron system (eV)
  ---------------------------------------------------
  alpha Z        PSCENC =         0.02803141
  Ewald energy   TEWEN  =       121.80403282
  -Hartree energ DENC   =      -515.84448030
  -exchange      EXHF   =         0.00000000
  -V(xc)+E(xc)   XCENC  =        34.05468013
  PAW double counting   =       544.89834564     -546.99613441
  entropy T*S    EENTRO =        -0.00000000
  eigenvalues    EBANDS =      -109.47017781
  atomic energy  EATOM  =       457.32929435
  Solvation  Ediel_sol  =         0.00000000
  ---------------------------------------------------
  free energy    TOTEN  =       -14.19640817 eV

  energy without entropy =      -14.19640817  energy(sigma->0) =      -14.19640817


--------------------------------------------------------------------------------------------------------




--------------------------------------- Iteration      1(  19)  ---------------------------------------


    POTLOK:  cpu time      0.4909: real time      0.4944
    SETDIJ:  cpu time      0.0096: real time      0.0096
    EDDIAG:  cpu time      0.3955: real time      0.4040
  RMM-DIIS:  cpu time      1.6983: real time      1.7219
    ORTHCH:  cpu time      0.0539: real time      0.0539
       DOS:  cpu time      0.0006: real time      0.0010
    CHARGE:  cpu time      2.6511: real time      2.6520
    MIXING:  cpu time      0.0674: real time      0.0675
    --------------------------------------------
      LOOP:  cpu time      5.3673: real time      5.4043

 eigenvalue-minimisations  :   256
 total energy-change (2. order) :-0.1323184E-01  (-0.5229352E-04)
 number of electron       8.0000014 magnetization      -0.0022302
 augmentation part        0.6910943 magnetization      -0.0018738

 Broyden mixing:
  rms(total) = 0.16468E-02    rms(broyden)= 0.16456E-02
  rms(prec ) = 0.20708E-02
  weight for this iteration     100.00

 eigenvalues of (default mixing * dielectric matrix)
  average eigenvalue GAMMA=   1.5560
  6.6018  3.1012  2.2455  1.1747  1.1747  0.9062  0.9062  1.1025  1.1025  0.7645
  0.7645  0.7026  0.6304  0.6067

 Free energy of the ion-electron system (eV)
  ---------------------------------------------------
  alpha Z        PSCENC =         0.02803141
  Ewald energy   TEWEN  =       121.80403282
  -Hartree energ DENC   =      -515.72696895
  -exchange      EXHF   =         0.00000000
  -V(xc)+E(xc)   XCENC  =        34.03612225
  PAW double counting   =       545.30463787     -547.40070591
  entropy T*S    EENTRO =        -0.00000000
  eigenvalues    EBANDS =      -109.58408384
  atomic energy  EATOM  =       457.32929435
  Solvation  Ediel_sol  =         0.00000000
  ---------------------------------------------------
  free energy    TOTEN  =       -14.20964000 eV

  energy without entropy =      -14.20964000  energy(sigma->0) =      -14.20964000


--------------------------------------------------------------------------------------------------------




--------------------------------------- Iteration      1(  20)  ---------------------------------------


    POTLOK:  cpu time      0.4990: real time      0.5001
    SETDIJ:  cpu time      0.0047: real time      0.0047
    EDDIAG:  cpu time      0.3784: real time      0.3785
  RMM-DIIS:  cpu time      1.7227: real time      1.7238
    ORTHCH:  cpu time      0.0689: real time      0.0689
       DOS:  cpu time      0.0008: real time      0.0013
    CHARGE:  cpu time      2.7076: real time      2.7082
    MIXING:  cpu time      0.1050: real time      0.1051
    --------------------------------------------
      LOOP:  cpu time      5.4872: real time      5.4906

 eigenvalue-minimisations  :   256
 total energy-change (2. order) :-0.6571642E-02  (-0.2792779E-04)
 number of electron       8.0000014 magnetization      -0.0045100
 augmentation part        0.6914306 magnetization      -0.0043991

 Broyden mixing:
  rms(total) = 0.20683E-02    rms(broyden)= 0.20675E-02
  rms(prec ) = 0.22813E-02
  weight for this iteration     100.00

 eigenvalues of (default mixing * dielectric matrix)
  average eigenvalue GAMMA=   1.5734
  6.8412  3.3110  2.2716  1.6152  1.1427  1.1427  1.2519  0.9062  0.9062  0.7590
  0.7590  0.7993  0.6563  0.6196  0.6196

 Free energy of the ion-electron system (eV)
  ---------------------------------------------------
  alpha Z        PSCENC =         0.02803141
  Ewald energy   TEWEN  =       121.80403282
  -Hartree energ DENC   =      -515.65465220
  -exchange      EXHF   =         0.00000000
  -V(xc)+E(xc)   XCENC  =        34.02603943
  PAW double counting   =       545.47728215     -547.57262358
  entropy T*S    EENTRO =        -0.00000000
  eigenvalues    EBANDS =      -109.65361601
  atomic energy  EATOM  =       457.32929435
  Solvation  Ediel_sol  =         0.00000000
  ---------------------------------------------------
  free energy    TOTEN  =       -14.21621164 eV

  energy without entropy =      -14.21621164  energy(sigma->0) =      -14.21621164


--------------------------------------------------------------------------------------------------------




--------------------------------------- Iteration      1(  21)  ---------------------------------------


    POTLOK:  cpu time      0.4644: real time      0.4715
    SETDIJ:  cpu time      0.0042: real time      0.0042
    EDDIAG:  cpu time      0.3780: real time      0.3782
  RMM-DIIS:  cpu time      1.7175: real time      1.7183
    ORTHCH:  cpu time      0.0643: real time      0.0643
       DOS:  cpu time      0.0006: real time      0.0011
    CHARGE:  cpu time      2.4861: real time      2.4870
    MIXING:  cpu time      0.0684: real time      0.0684
    --------------------------------------------
      LOOP:  cpu time      5.1836: real time      5.1930

 eigenvalue-minimisations  :   256
 total energy-change (2. order) :-0.6326436E-03  (-0.5090993E-05)
 number of electron       8.0000014 magnetization      -0.0042322
 augmentation part        0.6913173 magnetization      -0.0042188

 Broyden mixing:
  rms(total) = 0.96439E-03    rms(broyden)= 0.96415E-03
  rms(prec ) = 0.11481E-02
  weight for this iteration     100.00

 eigenvalues of (default mixing * dielectric matrix)
  average eigenvalue GAMMA=   1.5655
  6.9171  3.4006  2.2480  1.9295  1.1379  1.1379  1.3161  0.9071  0.9071  0.9815
  0.7744  0.7744  0.6860  0.6860  0.6099  0.6346

 Free energy of the ion-electron system (eV)
  ---------------------------------------------------
  alpha Z        PSCENC =         0.02803141
  Ewald energy   TEWEN  =       121.80403282
  -Hartree energ DENC   =      -515.67047050
  -exchange      EXHF   =         0.00000000
  -V(xc)+E(xc)   XCENC  =        34.02608381
  PAW double counting   =       545.40638942     -547.50231335
  entropy T*S    EENTRO =        -0.00000000
  eigenvalues    EBANDS =      -109.63789225
  atomic energy  EATOM  =       457.32929435
  Solvation  Ediel_sol  =         0.00000000
  ---------------------------------------------------
  free energy    TOTEN  =       -14.21684429 eV

  energy without entropy =      -14.21684429  energy(sigma->0) =      -14.21684429


--------------------------------------------------------------------------------------------------------




--------------------------------------- Iteration      1(  22)  ---------------------------------------


    POTLOK:  cpu time      0.4482: real time      0.4490
    SETDIJ:  cpu time      0.0042: real time      0.0043
    EDDIAG:  cpu time      0.3778: real time      0.3779
  RMM-DIIS:  cpu time      1.7122: real time      1.7133
    ORTHCH:  cpu time      0.0551: real time      0.0551
       DOS:  cpu time      0.0005: real time      0.0009
    CHARGE:  cpu time      2.3773: real time      2.3780
    MIXING:  cpu time      0.0753: real time      0.0753
    --------------------------------------------
      LOOP:  cpu time      5.0508: real time      5.0539

 eigenvalue-minimisations  :   255
 total energy-change (2. order) :-0.1030761E-03  (-0.2279293E-05)
 number of electron       8.0000014 magnetization      -0.0033003
 augmentation part        0.6912487 magnetization      -0.0032885

 Broyden mixing:
  rms(total) = 0.37538E-03    rms(broyden)= 0.37522E-03
  rms(prec ) = 0.58320E-03
  weight for this iteration     100.00

 eigenvalues of (default mixing * dielectric matrix)
  average eigenvalue GAMMA=   1.5838
  6.9655  3.6217  2.3155  2.3155  1.1391  1.1391  1.3297  1.3297  0.9059  0.9059
  0.8509  0.7541  0.7541  0.7139  0.6105  0.6364  0.6364

 Free energy of the ion-electron system (eV)
  ---------------------------------------------------
  alpha Z        PSCENC =         0.02803141
  Ewald energy   TEWEN  =       121.80403282
  -Hartree energ DENC   =      -515.66798610
  -exchange      EXHF   =         0.00000000
  -V(xc)+E(xc)   XCENC  =        34.02567543
  PAW double counting   =       545.30422536     -547.40028747
  entropy T*S    EENTRO =        -0.00000000
  eigenvalues    EBANDS =      -109.63993316
  atomic energy  EATOM  =       457.32929435
  Solvation  Ediel_sol  =         0.00000000
  ---------------------------------------------------
  free energy    TOTEN  =       -14.21694736 eV

  energy without entropy =      -14.21694736  energy(sigma->0) =      -14.21694736


--------------------------------------------------------------------------------------------------------




--------------------------------------- Iteration      1(  23)  ---------------------------------------


    POTLOK:  cpu time      0.4461: real time      0.4471
    SETDIJ:  cpu time      0.0046: real time      0.0046
    EDDIAG:  cpu time      0.3782: real time      0.3783
  RMM-DIIS:  cpu time      1.7199: real time      1.7208
    ORTHCH:  cpu time      0.0654: real time      0.0654
       DOS:  cpu time      0.0007: real time      0.0011
    CHARGE:  cpu time      2.3813: real time      2.3822
    MIXING:  cpu time      0.0743: real time      0.0743
    --------------------------------------------
      LOOP:  cpu time      5.0704: real time      5.0737

 eigenvalue-minimisations  :   253
 total energy-change (2. order) :-0.7916489E-04  (-0.1133173E-05)
 number of electron       8.0000014 magnetization      -0.0020047
 augmentation part        0.6912651 magnetization      -0.0019789

 Broyden mixing:
  rms(total) = 0.58851E-03    rms(broyden)= 0.58850E-03
  rms(prec ) = 0.64773E-03
  weight for this iteration     100.00

 eigenvalues of (default mixing * dielectric matrix)
  average eigenvalue GAMMA=   1.5887
  6.9745  3.8380  2.2945  2.2945  1.8890  1.1381  1.1381  1.2819  0.9062  0.9062
  1.0645  0.7618  0.7618  0.7409  0.7409  0.6392  0.6133  0.6133

 Free energy of the ion-electron system (eV)
  ---------------------------------------------------
  alpha Z        PSCENC =         0.02803141
  Ewald energy   TEWEN  =       121.80403282
  -Hartree energ DENC   =      -515.65296623
  -exchange      EXHF   =         0.00000000
  -V(xc)+E(xc)   XCENC  =        34.02470184
  PAW double counting   =       545.23624911     -547.33224166
  entropy T*S    EENTRO =        -0.00000000
  eigenvalues    EBANDS =      -109.65412817
  atomic energy  EATOM  =       457.32929435
  Solvation  Ediel_sol  =         0.00000000
  ---------------------------------------------------
  free energy    TOTEN  =       -14.21702653 eV

  energy without entropy =      -14.21702653  energy(sigma->0) =      -14.21702653


--------------------------------------------------------------------------------------------------------




--------------------------------------- Iteration      1(  24)  ---------------------------------------


    POTLOK:  cpu time      0.4422: real time      0.4429
    SETDIJ:  cpu time      0.0051: real time      0.0051
    EDDIAG:  cpu time      0.3787: real time      0.3788
  RMM-DIIS:  cpu time      1.7209: real time      1.7218
    ORTHCH:  cpu time      0.0661: real time      0.0661
       DOS:  cpu time      0.0017: real time      0.0022
    CHARGE:  cpu time      2.5390: real time      2.5405
    MIXING:  cpu time      0.0797: real time      0.0797
    --------------------------------------------
      LOOP:  cpu time      5.2334: real time      5.2371

 eigenvalue-minimisations  :   252
 total energy-change (2. order) :-0.4375471E-03  (-0.4106671E-06)
 number of electron       8.0000014 magnetization      -0.0011126
 augmentation part        0.6912660 magnetization      -0.0010916

 Broyden mixing:
  rms(total) = 0.22917E-03    rms(broyden)= 0.22916E-03
  rms(prec ) = 0.28040E-03
  weight for this iteration     100.00

 eigenvalues of (default mixing * dielectric matrix)
  average eigenvalue GAMMA=   1.6343
  6.9985  4.3842  2.9633  2.5133  1.8830  1.1359  1.1359  1.2582  1.2582  0.9058
  0.9058  0.8944  0.7464  0.7464  0.7536  0.6726  0.6726  0.6121  0.6121

 Free energy of the ion-electron system (eV)
  ---------------------------------------------------
  alpha Z        PSCENC =         0.02803141
  Ewald energy   TEWEN  =       121.80403282
  -Hartree energ DENC   =      -515.65632287
  -exchange      EXHF   =         0.00000000
  -V(xc)+E(xc)   XCENC  =        34.02447205
  PAW double counting   =       545.27473473     -547.37084349
  entropy T*S    EENTRO =        -0.00000000
  eigenvalues    EBANDS =      -109.65086307
  atomic energy  EATOM  =       457.32929435
  Solvation  Ediel_sol  =         0.00000000
  ---------------------------------------------------
  free energy    TOTEN  =       -14.21746408 eV

  energy without entropy =      -14.21746408  energy(sigma->0) =      -14.21746408


--------------------------------------------------------------------------------------------------------




--------------------------------------- Iteration      1(  25)  ---------------------------------------


    POTLOK:  cpu time      0.4377: real time      0.4409
    SETDIJ:  cpu time      0.0047: real time      0.0047
    EDDIAG:  cpu time      0.3782: real time      0.3783
  RMM-DIIS:  cpu time      1.7142: real time      1.7152
    ORTHCH:  cpu time      0.0563: real time      0.0563
       DOS:  cpu time      0.0008: real time      0.0013
    CHARGE:  cpu time      2.3513: real time      2.3519
    MIXING:  cpu time      0.0814: real time      0.0814
    --------------------------------------------
      LOOP:  cpu time      5.0246: real time      5.0300

 eigenvalue-minimisations  :   250
 total energy-change (2. order) :-0.3240557E-03  (-0.1728262E-06)
 number of electron       8.0000014 magnetization      -0.0004922
 augmentation part        0.6912609 magnetization      -0.0004771

 Broyden mixing:
  rms(total) = 0.19194E-03    rms(broyden)= 0.19192E-03
  rms(prec ) = 0.22080E-03
  weight for this iteration     100.00

 eigenvalues of (default mixing * dielectric matrix)
  average eigenvalue GAMMA=   1.6653
  7.0191  5.0294  3.3179  2.3126  1.9999  1.6383  1.1384  1.1384  1.2300  0.9061
  0.9061  1.0608  0.8230  0.7628  0.7628  0.7160  0.6719  0.6468  0.6131  0.6131

 Free energy of the ion-electron system (eV)
  ---------------------------------------------------
  alpha Z        PSCENC =         0.02803141
  Ewald energy   TEWEN  =       121.80403282
  -Hartree energ DENC   =      -515.66022295
  -exchange      EXHF   =         0.00000000
  -V(xc)+E(xc)   XCENC  =        34.02430835
  PAW double counting   =       545.28637206     -547.38253599
  entropy T*S    EENTRO =        -0.00000000
  eigenvalues    EBANDS =      -109.64706819
  atomic energy  EATOM  =       457.32929435
  Solvation  Ediel_sol  =         0.00000000
  ---------------------------------------------------
  free energy    TOTEN  =       -14.21778813 eV

  energy without entropy =      -14.21778813  energy(sigma->0) =      -14.21778813


--------------------------------------------------------------------------------------------------------




--------------------------------------- Iteration      1(  26)  ---------------------------------------


    POTLOK:  cpu time      0.4595: real time      0.4623
    SETDIJ:  cpu time      0.0050: real time      0.0050
    EDDIAG:  cpu time      0.3774: real time      0.3775
  RMM-DIIS:  cpu time      1.7153: real time      1.7161
    ORTHCH:  cpu time      0.0600: real time      0.0601
       DOS:  cpu time      0.0006: real time      0.0011
    CHARGE:  cpu time      2.4531: real time      2.4540
    MIXING:  cpu time      0.0795: real time      0.0795
    --------------------------------------------
      LOOP:  cpu time      5.1503: real time      5.1555

 eigenvalue-minimisations  :   248
 total energy-change (2. order) :-0.1678652E-03  (-0.1147572E-06)
 number of electron       8.0000014 magnetization      -0.0001925
 augmentation part        0.6912907 magnetization      -0.0001839

 Broyden mixing:
  rms(total) = 0.97881E-04    rms(broyden)= 0.97806E-04
  rms(prec ) = 0.11376E-03
  weight for this iteration     100.00

 eigenvalues of (default mixing * dielectric matrix)
  average eigenvalue GAMMA=   1.7920
  7.3185  6.6903  3.6808  2.5018  2.5018  1.8338  1.1377  1.1377  1.2736  1.2736
  0.9060  0.9060  0.9029  0.8329  0.7431  0.7431  0.7115  0.6934  0.6214  0.6214
  0.6012

 Free energy of the ion-electron system (eV)
  ---------------------------------------------------
  alpha Z        PSCENC =         0.02803141
  Ewald energy   TEWEN  =       121.80403282
  -Hartree energ DENC   =      -515.65881239
  -exchange      EXHF   =         0.00000000
  -V(xc)+E(xc)   XCENC  =        34.02402599
  PAW double counting   =       545.30648847     -547.40255605
  entropy T*S    EENTRO =        -0.00000000
  eigenvalues    EBANDS =      -109.64846059
  atomic energy  EATOM  =       457.32929435
  Solvation  Ediel_sol  =         0.00000000
  ---------------------------------------------------
  free energy    TOTEN  =       -14.21795600 eV

  energy without entropy =      -14.21795600  energy(sigma->0) =      -14.21795600


--------------------------------------------------------------------------------------------------------




--------------------------------------- Iteration      1(  27)  ---------------------------------------


    POTLOK:  cpu time      0.4483: real time      0.4536
    SETDIJ:  cpu time      0.0049: real time      0.0049
    EDDIAG:  cpu time      0.3788: real time      0.3789
  RMM-DIIS:  cpu time      1.7158: real time      1.7165
    ORTHCH:  cpu time      0.0548: real time      0.0548
       DOS:  cpu time      0.0007: real time      0.0011
    CHARGE:  cpu time      2.4272: real time      2.4281
    MIXING:  cpu time      0.0889: real time      0.0889
    --------------------------------------------
      LOOP:  cpu time      5.1193: real time      5.1267

 eigenvalue-minimisations  :   248
 total energy-change (2. order) :-0.2739972E-04  (-0.4086746E-07)
 number of electron       8.0000014 magnetization      -0.0001223
 augmentation part        0.6913035 magnetization      -0.0001138

 Broyden mixing:
  rms(total) = 0.14552E-03    rms(broyden)= 0.14550E-03
  rms(prec ) = 0.15716E-03
  weight for this iteration     100.00

 eigenvalues of (default mixing * dielectric matrix)
  average eigenvalue GAMMA=   1.7987
  7.9954  6.8755  3.7850  2.7101  2.2500  2.0116  1.1379  1.1379  1.3555  1.2356
  0.9061  0.9061  0.9732  0.8684  0.7579  0.7579  0.7041  0.7041  0.5994  0.6403
  0.6297  0.6297

 Free energy of the ion-electron system (eV)
  ---------------------------------------------------
  alpha Z        PSCENC =         0.02803141
  Ewald energy   TEWEN  =       121.80403282
  -Hartree energ DENC   =      -515.65908827
  -exchange      EXHF   =         0.00000000
  -V(xc)+E(xc)   XCENC  =        34.02396311
  PAW double counting   =       545.30609333     -547.40212178
  entropy T*S    EENTRO =        -0.00000000
  eigenvalues    EBANDS =      -109.64818836
  atomic energy  EATOM  =       457.32929435
  Solvation  Ediel_sol  =         0.00000000
[...]
     43       1.7811      0.00000
     44       1.7889      0.00000
     45       1.7970      0.00000
     46       1.8071      0.00000
     47       1.8374      0.00000
     48       1.8412      0.00000
     49       1.8442      0.00000
     50       1.8473      0.00000
     51       1.8487      0.00000
     52       1.8515      0.00000
     53       1.8537      0.00000
     54       1.8559      0.00000
     55       1.8578      0.00000
     56       1.8596      0.00000
     57       1.8603      0.00000
     58       1.8623      0.00000
     59       1.8669      0.00000
     60       1.8709      0.00000
     61       1.8739      0.00000
     62       2.0498      0.00000
     63       2.0771      0.00000
     64       2.1212      0.00000
 Fermi energy:        -6.6438126081

 spin component 2

 k-point     1 :       0.0000    0.0000    0.0000
  band No.  band energies     occupation 
      1     -25.2507      1.00000
      2     -13.0103      1.00000
      3      -9.2831      1.00000
      4      -7.1847      1.00000
      5      -1.0063      0.00000
      6       0.0155      0.00000
      7       0.2416      0.00000
      8       0.3145      0.00000
      9       0.3167      0.00000
     10       0.3406      0.00000
     11       0.3547      0.00000
     12       0.4749      0.00000
     13       0.5224      0.00000
     14       0.6254      0.00000
     15       0.6337      0.00000
     16       0.7104      0.00000
     17       0.7167      0.00000
     18       0.7189      0.00000
     19       0.7248      0.00000
     20       0.7270      0.00000
     21       0.7306      0.00000
     22       0.7352      0.00000
     23       0.7413      0.00000
     24       0.9459      0.00000
     25       0.9532      0.00000
     26       1.0321      0.00000
     27       1.0382      0.00000
     28       1.0883      0.00000
     29       1.0903      0.00000
     30       1.0950      0.00000
     31       1.1163      0.00000
     32       1.2767      0.00000
     33       1.2846      0.00000
     34       1.3990      0.00000
     35       1.4056      0.00000
     36       1.4361      0.00000
     37       1.4520      0.00000
     38       1.5666      0.00000
     39       1.5795      0.00000
     40       1.6654      0.00000
     41       1.6787      0.00000
     42       1.7680      0.00000
     43       1.7811      0.00000
     44       1.7888      0.00000
     45       1.7969      0.00000
     46       1.8070      0.00000
     47       1.8373      0.00000
     48       1.8411      0.00000
     49       1.8442      0.00000
     50       1.8472      0.00000
     51       1.8486      0.00000
     52       1.8514      0.00000
     53       1.8535      0.00000
     54       1.8557      0.00000
     55       1.8576      0.00000
     56       1.8594      0.00000
     57       1.8601      0.00000
     58       1.8621      0.00000
     59       1.8667      0.00000
     60       1.8706      0.00000
     61       1.8737      0.00000
     62       2.0498      0.00000
     63       2.0771      0.00000
     64       2.1212      0.00000


--------------------------------------------------------------------------------------------------------


 soft charge-density along one line, spin component           1
         0         1         2         3         4         5         6         7         8         9
 total charge-density along one line

 soft charge-density along one line, spin component           2
         0         1         2         3         4         5         6         7         8         9
 total charge-density along one line

 pseudopotential strength for first ion, spin component:           1
 13.806 -16.926  -0.002   0.121   0.000   0.003  -0.151  -0.000
-16.926  20.781   0.003  -0.154  -0.000  -0.004   0.194   0.000
 -0.002   0.003 -10.582   0.001   0.000  13.119  -0.001  -0.000
  0.121  -0.154   0.001 -10.489  -0.000  -0.001  12.995   0.000
  0.000  -0.000   0.000  -0.000 -10.346  -0.000   0.000  12.804
  0.003  -0.004  13.119  -0.001  -0.000 -16.195   0.001   0.000
 -0.151   0.194  -0.001  12.995   0.000   0.001 -16.027  -0.000
 -0.000   0.000  -0.000   0.000  12.804   0.000  -0.000 -15.769
 pseudopotential strength for first ion, spin component:           2
 13.806 -16.926  -0.002   0.121   0.000   0.003  -0.151  -0.000
-16.926  20.781   0.003  -0.154  -0.000  -0.004   0.194   0.000
 -0.002   0.003 -10.582   0.001  -0.000  13.119  -0.001   0.000
  0.121  -0.154   0.001 -10.489   0.000  -0.001  12.995  -0.000
  0.000  -0.000  -0.000   0.000 -10.346   0.000  -0.000  12.804
  0.003  -0.004  13.119  -0.001   0.000 -16.195   0.001  -0.000
 -0.151   0.194  -0.001  12.995  -0.000   0.001 -16.027   0.000
 -0.000   0.000   0.000  -0.000  12.804  -0.000   0.000 -15.769
 total augmentation occupancy for first ion, spin component:           1
  2.743   0.446   0.011  -0.418   0.000   0.004  -0.166   0.000
  0.446   0.125   0.007  -0.410   0.000   0.002  -0.074   0.000
  0.011   0.007   2.385  -0.008   0.000   0.456  -0.001   0.000
 -0.418  -0.410  -0.008   2.285   0.000  -0.002   0.329   0.000
  0.000   0.000   0.000   0.000   2.126   0.000   0.000   0.135
  0.004   0.002   0.456  -0.002   0.000   0.087  -0.000   0.000
 -0.166  -0.074  -0.001   0.329   0.000  -0.000   0.052   0.000
  0.000   0.000   0.000   0.000   0.135   0.000   0.000   0.009
 total augmentation occupancy for first ion, spin component:           2
  0.000   0.000  -0.000  -0.000   0.000  -0.000  -0.000   0.000
  0.000   0.000  -0.000  -0.000   0.000  -0.000  -0.000   0.000
 -0.000  -0.000   0.000  -0.000   0.000   0.000  -0.000   0.000
 -0.000  -0.000  -0.000   0.000   0.000  -0.000   0.000   0.000
  0.000   0.000   0.000   0.000   0.000   0.000   0.000   0.000
 -0.000  -0.000   0.000  -0.000   0.000   0.000  -0.000   0.000
 -0.000  -0.000  -0.000   0.000   0.000  -0.000   0.000   0.000
  0.000   0.000   0.000   0.000   0.000   0.000   0.000   0.000


------------------------ aborting loop because EDIFF is reached ----------------------------------------


    CHARGE:  cpu time      2.3924: real time      2.3929
    FORLOC:  cpu time      0.0059: real time      0.0059
    FORNL :  cpu time      0.1199: real time      0.1205
    STRESS:  cpu time      1.9193: real time      1.9203
    FORCOR:  cpu time      0.3476: real time      0.3476
    FORHAR:  cpu time      0.0467: real time      0.0467
    MIXING:  cpu time      0.0170: real time      0.0170
    OFIELD:  cpu time      0.0001: real time      0.0001

 ---------------------------------------------------------------------------------------------

         DFTD3 V3.0 Rev 1        
 Edisp (eV)   -0.00011

 E6    (eV) :    -0.0000
 E8    (eV) :    -0.0001
 % E8        : 87.82
    FORVDW:  cpu time      0.0071: real time      0.0071

  FORCE on cell =-STRESS in cart. coord.  units (eV):
  Direction    XX          YY          ZZ          XY          YZ          ZX
  --------------------------------------------------------------------------------------
  Alpha Z     0.02803     0.02803     0.02803
  Ewald     -21.81671    97.17666    45.60566    -0.00000    -0.06209    -0.00000
  Hartree   160.53298   181.62267   172.80105    -0.00000     0.09446    -0.00000
  E(xc)     -36.38528   -35.89711   -36.08480     0.00000     0.00110     0.00000
  Local    -247.77047  -352.64561  -306.72755     0.00000    -0.16243    -0.00000
  n-local   -30.79910   -30.06763   -30.92266     0.00000     0.05759    -0.00000
  augment     8.15067     5.78548     6.71561    -0.00000    -0.00356    -0.00000
  Kinetic   167.96312   133.71397   148.30818    -0.00003    -0.13978    -0.00002
  Fock        0.00000     0.00000     0.00000     0.00000     0.00000     0.00000
  vdW        -0.00000     0.00086     0.00004     0.00000     0.00001     0.00000
  -------------------------------------------------------------------------------------
  Total      -0.09677    -0.28269    -0.27643     0.00000    -0.21470     0.00000
  in kB      -0.01938    -0.05661    -0.05536     0.00000    -0.04300     0.00000
  external pressure =       -0.04 kB  Pullay stress =        0.00 kB


 VOLUME and BASIS-vectors are now :
 -----------------------------------------------------------------------------
  energy-cutoff  :      500.00
  volume of cell :     8000.00
      direct lattice vectors                 reciprocal lattice vectors
    20.000000000  0.000000000  0.000000000     0.050000000  0.000000000  0.000000000
     0.000000000 20.000000000  0.000000000     0.000000000  0.050000000  0.000000000
     0.000000000  0.000000000 20.000000000     0.000000000  0.000000000  0.050000000

  length of vectors
    20.000000000 20.000000000 20.000000000     0.050000000  0.050000000  0.050000000


 FORCES acting on ions
    electron-ion (+dipol)            ewald-force                    non-local-force                 convergence-correction
 -----------------------------------------------------------------------------------------------
   0.709E-12 0.110E+01 -.629E+02   -.527E-17 -.203E+01 0.112E+03   0.102E-19 0.556E+00 -.491E+02   0.279E-03 0.193E-01 -.112E-02
   0.567E-13 -.715E+02 0.510E+02   0.668E-17 0.783E+02 -.559E+02   -.212E-21 -.674E+01 0.487E+01   0.380E-04 -.831E-03 0.594E-03
   0.562E-13 0.701E+02 0.513E+02   -.612E-17 -.763E+02 -.558E+02   0.424E-21 0.646E+01 0.478E+01   0.433E-04 0.212E-02 0.821E-04
 -----------------------------------------------------------------------------------------------
   0.822E-12 -.298E+00 0.394E+02   -.471E-17 0.000E+00 0.000E+00   0.104E-19 0.282E+00 -.394E+02   0.360E-03 0.205E-01 -.445E-03


 POSITION                                       TOTAL-FORCE (eV/Angst)
 -----------------------------------------------------------------------------------
     10.00000     10.00000     10.29749        -0.000000     -0.350349     -0.305914
     10.00000     10.76851      9.70218         0.000000      0.044373      0.012746
     10.00000      9.23149      9.68718         0.000000      0.305975      0.293169
 -----------------------------------------------------------------------------------
    total drift:                                0.000360      0.003873      0.000367


--------------------------------------------------------------------------------------------------------



  FREE ENERGIE OF THE ION-ELECTRON SYSTEM (eV)
  ---------------------------------------------------
  free  energy   TOTEN  =       -14.21584028 eV

  energy  without entropy=      -14.21584028  energy(sigma->0) =      -14.21584028

 d Force = 0.3206951E-04[-0.880E-02, 0.886E-02]  d Energy =-0.4535903E-04 0.774E-04
 d Force = 0.1678173E+01[ 0.167E+01, 0.168E+01]  d Ewald  = 0.1678622E+01-0.450E-03


--------------------------------------------------------------------------------------------------------


    POTLOK:  cpu time      0.4591: real time      0.4596


--------------------------------------------------------------------------------------------------------


 Finite differences progress:
  Degree of freedom:   9/  9
  Displacement:        2/  2
  Total:              18/ 18

 SECOND DERIVATIVES (NOT SYMMETRIZED)
 ------------------------------------
               1X          1Y          1Z          2X          2Y          2Z          3X          3Y          3Z 
  1X    -0.048073    0.000000   -0.013841    0.024037   -0.002615    0.006921    0.024037    0.002615    0.006921
  1Y    -0.000000  -62.956665    0.007360    0.000000   31.481430  -24.403297    0.000000   31.475235   24.395938
  1Z     0.000000   -0.000000  -41.164735   -0.000000  -18.647388   20.582368   -0.000000   18.647388   20.582368
  2X    -0.013664    0.000106   -0.026013    0.018476   -0.014189    0.013917   -0.004812    0.014083    0.012096
  2Y    -0.000000   31.235782  -18.381954    0.000000  -34.266332   21.400087    0.000000    3.030550   -3.018132
  2Z    -0.000000  -24.360439   20.524468    0.000000   21.385668  -19.714767    0.000000    2.974772   -0.809701
  3X    -0.063148    0.047143   -0.075669    0.027004   -0.071338    0.038268    0.036144    0.024195    0.037401
  3Y     0.000000   31.158300   18.260958   -0.000000    3.002374    3.102748   -0.000000  -34.160674  -21.363706
  3Z     0.000000   24.147802   20.317401   -0.000000   -2.880630   -0.701560    0.000000  -21.267171  -19.615840


 Eigenvectors and eigenvalues of the dynamical matrix
 ----------------------------------------------------


   1 f  =  114.976384 THz   722.417930 2PiTHz 3835.199365 cm-1   475.503905 meV
             X         Y         Z           dx          dy          dz
     10.000000 10.000000 10.297489    -0.000001    0.269229   -0.005338  
     10.000000 10.768513  9.702178    -0.000015   -0.552343    0.429460  
     10.000000  9.231487  9.702178    -0.000289   -0.521792   -0.407065  

   2 f  =  111.487785 THz   700.498415 2PiTHz 3718.832228 cm-1   461.076225 meV
             X         Y         Z           dx          dy          dz
     10.000000 10.000000 10.297489    -0.000022   -0.007487   -0.191896  
     10.000000 10.768513  9.702178    -0.000270   -0.564925    0.369891  
     10.000000  9.231487  9.702178    -0.000855    0.593587    0.393465  

   3 f  =   47.839121 THz   300.582061 2PiTHz 1595.741303 cm-1   197.846617 meV
             X         Y         Z           dx          dy          dz
     10.000000 10.000000 10.297489     0.000085    0.000887    0.273125  
     10.000000 10.768513  9.702178     0.000241   -0.406518   -0.546671  
     10.000000  9.231487  9.702178     0.000411    0.403982   -0.545980  

   4 f  =    2.272390 THz    14.277844 2PiTHz   75.798755 cm-1     9.397844 meV
             X         Y         Z           dx          dy          dz
     10.000000 10.000000 10.297489     0.028650   -0.869342   -0.257326  
     10.000000 10.768513  9.702178    -0.034189    0.000727    0.216300  
     10.000000  9.231487  9.702178     0.096964    0.001353   -0.346191  

   5 f  =    0.982842 THz     6.175376 2PiTHz   32.784066 cm-1     4.064704 meV
             X         Y         Z           dx          dy          dz
     10.000000 10.000000 10.297489     0.977650    0.047905    0.014030  
     10.000000 10.768513  9.702178    -0.132866    0.009441    0.000437  
     10.000000  9.231487  9.702178     0.154365    0.009499    0.006868  

   6 f/i=    0.094814 THz     0.595731 2PiTHz    3.162641 cm-1     0.392117 meV
             X         Y         Z           dx          dy          dz
     10.000000 10.000000 10.297489    -0.001700    0.298595   -0.894098  
     10.000000 10.768513  9.702178     0.000163    0.075475   -0.223389  
     10.000000  9.231487  9.702178     0.000924    0.074406   -0.224255  

   7 f/i=    1.822856 THz    11.453339 2PiTHz   60.803917 cm-1     7.538721 meV
             X         Y         Z           dx          dy          dz
     10.000000 10.000000 10.297489    -0.190031    0.077601    0.028768  
     10.000000 10.768513  9.702178    -0.886259    0.034578    0.026940  
     10.000000  9.231487  9.702178     0.410231    0.034874   -0.012511  

   8 f/i=    3.123772 THz    19.627239 2PiTHz  104.197824 cm-1    12.918878 meV
             X         Y         Z           dx          dy          dz
     10.000000 10.000000 10.297489     0.083291   -0.131934   -0.058647  
     10.000000 10.768513  9.702178    -0.439246   -0.124610   -0.133756  
     10.000000  9.231487  9.702178    -0.848163   -0.125752    0.103288  

   9 f/i=    4.111000 THz    25.830173 2PiTHz  137.128191 cm-1    17.001721 meV
             X         Y         Z           dx          dy          dz
     10.000000 10.000000 10.297489    -0.018101   -0.238371   -0.135860  
     10.000000 10.768513  9.702178     0.052778   -0.433602   -0.514385  
     10.000000  9.231487  9.702178     0.281244   -0.435349    0.447638  

 Finite differences POTIM=   1.4999999999999999E-002
  LATTYP: Found a simple cubic cell.
 ALAT       =    20.0000000000
  
  Lattice vectors:
  
 A1 = (  20.0000000000,   0.0000000000,   0.0000000000)
 A2 = (   0.0000000000,  20.0000000000,   0.0000000000)
 A3 = (   0.0000000000,   0.0000000000,  20.0000000000)


Analysis of symmetry for initial positions (statically):
=====================================================================
 Subroutine PRICEL returns:
 Original cell was already a primitive cell.
 

 Routine SETGRP: Setting up the symmetry group for a 
 simple cubic supercell.


 Subroutine GETGRP returns: Found  4 space group operations
 (whereof  4 operations were pure point group operations)
 out of a pool of 48 trial point group operations.


The static configuration has the point symmetry C_2v.


Analysis of symmetry for dynamics (positions and initial velocities):
=====================================================================
 Subroutine PRICEL returns:
 Original cell was already a primitive cell.
 

 Routine SETGRP: Setting up the symmetry group for a 
 simple cubic supercell.


 Subroutine GETGRP returns: Found  4 space group operations
 (whereof  4 operations were pure point group operations)
 out of a pool of 48 trial point group operations.


The dynamic configuration has the point symmetry C_2v.


Analysis of structural, dynamic, and magnetic symmetry:
=====================================================================
 Subroutine PRICEL returns:
 Original cell was already a primitive cell.
 

 Routine SETGRP: Setting up the symmetry group for a 
 simple cubic supercell.


 Subroutine GETGRP returns: Found  4 space group operations
 (whereof  4 operations were pure point group operations)
 out of a pool of 48 trial point group operations.


The overall configuration has the point symmetry C_2v.


 Subroutine INISYM returns: Found  4 space group operations
 (whereof  4 operations are pure point group operations),
 and found     1 'primitive' translations


 KPOINTS: k-points                                

Automatic generation of k-mesh.
 Grid dimensions read from file:
 generate k-points for:    1    1    1

 Generating k-lattice:

  Cartesian coordinates                     Fractional coordinates (reciprocal lattice)
     0.050000000  0.000000000  0.000000000     1.000000000  0.000000000  0.000000000
     0.000000000  0.050000000  0.000000000     0.000000000  1.000000000  0.000000000
     0.000000000  0.000000000  0.050000000     0.000000000  0.000000000  1.000000000

  Length of vectors
     0.050000000  0.050000000  0.050000000

  Shift w.r.t. Gamma in fractional coordinates (k-lattice)
     0.000000000  0.000000000  0.000000000

 
 Subroutine IBZKPT returns following result:
 ===========================================
 
 Found      1 irreducible k-points:
 
 Following reciprocal coordinates:
            Coordinates               Weight
  0.000000  0.000000  0.000000      1.000000
 
 Following cartesian coordinates:
            Coordinates               Weight
  0.000000  0.000000  0.000000      1.000000
 
     LOOP+:  cpu time     28.6628: real time     28.7134
    4ORBIT:  cpu time      0.0000: real time      0.0000

 total amount of memory used by VASP MPI-rank0   213570. kBytes
=======================================================================

   base      :      30000. kBytes
   nonl-proj :      35785. kBytes
   fftplans  :      12293. kBytes
   grid      :     128966. kBytes
   one-center:         18. kBytes
   wavefun   :       6508. kBytes

  
  
 General timing and accounting informations for this job:
 ========================================================
  
                  Total CPU time used (sec):      888.509
                            User time (sec):      773.772
                          System time (sec):      114.737
                         Elapsed time (sec):      893.132
  
                   Maximum memory used (kb):      571352.
                   Average memory used (kb):          N/A
  
                          Minor page faults:      1073329
                          Major page faults:         1157
                 Voluntary context switches:         4297
