 vasp.6.4.2 20Jul23 (build Mar  9 2024 05:55:09) complex                         
 executed on             LinuxGNU date 2025.02.08  18:11:56
 running  128 mpi-ranks, with    1 threads/rank, on    1 nodes
 distrk:  each k-point on  128 cores,    1 groups
 distr:  one band on NCORE=   4 cores,   32 groups


--------------------------------------------------------------------------------------------------------


 INCAR:
   SYSTEM = hBN
   PREC = Normal
   NWRITE = 2
   ISTART = 0
   ICHARG = 2
   LWAVE = F
   LCHARG = F
   LAECHG = F
   ALGO = Fast
   ISYM = 1
   LREAL = T
   NSW = 0
   EDIFF = 1E-5
   EDIFFG = -1E-2
   IBRION = -1
   ISIF = 2
   POTIM = 0.5
   ENCUT = 500
   ISMEAR = 0
   SIGMA = 0.1
   ISPIN = 2
   IVDW = 11
   NCORE = 4

 POTCAR:    PAW_PBE B 06Sep2000                   
 POTCAR:    PAW_PBE N 08Apr2002                   
 -----------------------------------------------------------------------------
|                                                                             |
|           W    W    AA    RRRRR   N    N  II  N    N   GGGG   !!!           |
|           W    W   A  A   R    R  NN   N  II  NN   N  G    G  !!!           |
|           W    W  A    A  R    R  N N  N  II  N N  N  G       !!!           |
|           W WW W  AAAAAA  RRRRR   N  N N  II  N  N N  G  GGG   !            |
|           WW  WW  A    A  R   R   N   NN  II  N   NN  G    G                |
|           W    W  A    A  R    R  N    N  II  N    N   GGGG   !!!           |
|                                                                             |
|     You use a magnetic or noncollinear calculation, but did not specify     |
|     the initial magnetic moment with the MAGMOM tag. Note that a            |
|     default of 1 will be used for all atoms. This ferromagnetic setup       |
|     may break the symmetry of the crystal, in particular it may rule        |
|     out finding an antiferromagnetic solution. Thence, we recommend         |
|     setting the initial magnetic moment manually or verifying carefully     |
|     that this magnetic setup is desired.                                    |
|                                                                             |
 -----------------------------------------------------------------------------

 POTCAR:    PAW_PBE B 06Sep2000                   
   VRHFIN =B: s2p1                                                                                  
   LEXCH  = PE                                                                                      
   EATOM  =    71.1703 eV,    5.2309 Ry                                                             
                                                                                                    
   TITEL  = PAW_PBE B 06Sep2000                                                                     
   LULTRA =        F    use ultrasoft PP ?                                                          
   IUNSCR =        1    unscreen: 0-lin 1-nonlin 2-no                                               
   RPACOR =    1.200    partial core radius                                                         
   POMASS =   10.811; ZVAL   =    3.000    mass and valenz                                          
   RCORE  =    1.700    outmost cutoff radius                                                       
   RWIGS  =    1.710; RWIGS  =    0.905    wigner-seitz radius (au A)                               
   ENMAX  =  318.614; ENMIN  =  238.960 eV                                                          
   ICORE  =        2    local potential                                                             
   LCOR   =        T    correct aug charges                                                         
   LPAW   =        T    paw PP                                                                      
   EAUG   =  535.514                                                                                
   DEXC   =    0.000                                                                                
   RMAX   =    1.732    core radius for proj-oper                                                   
   RAUG   =    1.300    factor for augmentation sphere                                              
   RDEP   =    1.757    radius for radial grids                                                     
   RDEPT  =    1.436    core radius for aug-charge                                                  
                                                                                                    
   Atomic configuration                                                                             
    4 entries                                                                                       
     n  l   j            E        occ.                                                              
     1  0  0.50      -180.5896   2.0000                                                             
     2  0  0.50        -9.4431   2.0000                                                             
     2  1  0.50        -3.6068   1.0000                                                             
     3  2  1.50        -4.0817   0.0000                                                             
   Description                                                                                      
     l       E           TYP  RCUT    TYP  RCUT                                                     
     0     -9.4430752     23  1.500                                                                 
     0      0.8675899     23  1.500                                                                 
     1     -3.6067955     23  1.700                                                                 
     1      6.1086146     23  1.700                                                                 
     2     -4.0817478      7  1.700                                                                 
  local pseudopotential read in
  partial core-charges read in
  partial kinetic energy density read in
  atomic valenz-charges read in
  non local Contribution for L=           0  read in
    real space projection operators read in
  non local Contribution for L=           0  read in
    real space projection operators read in
  non local Contribution for L=           1  read in
    real space projection operators read in
  non local Contribution for L=           1  read in
    real space projection operators read in
    PAW grid and wavefunctions read in

   number of l-projection  operators is LMAX  =           4
   number of lm-projection operators is LMMAX =           8

 POTCAR:    PAW_PBE N 08Apr2002                   
   VRHFIN =N: s2p3                                                                                  
   LEXCH  = PE                                                                                      
   EATOM  =   264.5486 eV,   19.4438 Ry                                                             
                                                                                                    
   TITEL  = PAW_PBE N 08Apr2002                                                                     
   LULTRA =        F    use ultrasoft PP ?                                                          
   IUNSCR =        1    unscreen: 0-lin 1-nonlin 2-no                                               
   RPACOR =    1.200    partial core radius                                                         
   POMASS =   14.001; ZVAL   =    5.000    mass and valenz                                          
   RCORE  =    1.500    outmost cutoff radius                                                       
   RWIGS  =    1.400; RWIGS  =    0.741    wigner-seitz radius (au A)                               
   ENMAX  =  400.000; ENMIN  =  300.000 eV                                                          
   ICORE  =        2    local potential                                                             
   LCOR   =        T    correct aug charges                                                         
   LPAW   =        T    paw PP                                                                      
   EAUG   =  627.112                                                                                
   DEXC   =    0.000                                                                                
   RMAX   =    1.529    core radius for proj-oper                                                   
   RAUG   =    1.300    factor for augmentation sphere                                              
   RDEP   =    1.514    radius for radial grids                                                     
   RDEPT  =    1.338    core radius for aug-charge                                                  
                                                                                                    
   Atomic configuration                                                                             
    4 entries                                                                                       
     n  l   j            E        occ.                                                              
     1  0  0.50      -384.7179   2.0000                                                             
     2  0  0.50       -18.5828   2.0000                                                             
     2  1  0.50        -7.0898   3.0000                                                             
     3  2  1.50        -6.8029   0.0000                                                             
   Description                                                                                      
     l       E           TYP  RCUT    TYP  RCUT                                                     
     0    -18.5828119     23  1.200                                                                 
     0    -13.5018863     23  1.200                                                                 
     1     -7.0897853     23  1.500                                                                 
     1      9.5240782     23  1.500                                                                 
     2     -6.8029130      7  1.500                                                                 
  local pseudopotential read in
  partial core-charges read in
  partial kinetic energy density read in
  atomic valenz-charges read in
  non local Contribution for L=           0  read in
    real space projection operators read in
  non local Contribution for L=           0  read in
    real space projection operators read in
  non local Contribution for L=           1  read in
    real space projection operators read in
  non local Contribution for L=           1  read in
    real space projection operators read in
    PAW grid and wavefunctions read in

   number of l-projection  operators is LMAX  =           4
   number of lm-projection operators is LMMAX =           8

 -----------------------------------------------------------------------------
|                                                                             |
|           W    W    AA    RRRRR   N    N  II  N    N   GGGG   !!!           |
|           W    W   A  A   R    R  NN   N  II  NN   N  G    G  !!!           |
|           W    W  A    A  R    R  N N  N  II  N N  N  G       !!!           |
|           W WW W  AAAAAA  RRRRR   N  N N  II  N  N N  G  GGG   !            |
|           WW  WW  A    A  R   R   N   NN  II  N   NN  G    G                |
|           W    W  A    A  R    R  N    N  II  N    N   GGGG   !!!           |
|                                                                             |
|     The real-space projection scheme for the treatment of the non-local     |
|     pseudopotentials has been switched on but on file POTCAR I have not     |
|     found any entries, signalling me that you have never performed a        |
|     real-space optimization of all non-local projectors! BE WARNED that     |
|     a calculation using the real-space projection scheme together with      |
|     non-local projectors which were not real-space optimized (according     |
|     to the plane-wave cutoff used in this calculation) might give more      |
|     or less inaccurate results. I hope you know what you are doing.         |
|                                                                             |
 -----------------------------------------------------------------------------

  PAW_PBE B 06Sep2000                   :
 energy of atom  1       EATOM=  -71.1703
 kinetic energy error for atom=    0.0012 (will be added to EATOM!!)
  PAW_PBE N 08Apr2002                   :
 energy of atom  2       EATOM= -264.5486
 kinetic energy error for atom=    0.0138 (will be added to EATOM!!)


 POSCAR:  B  N
  positions in cartesian coordinates
  No initial velocities read in
 exchange correlation table for  LEXCH =        8
   RHO(1)=    0.500       N(1)  =     2000
   RHO(2)=  100.500       N(2)  =     4000



--------------------------------------------------------------------------------------------------------


 ion  position               nearest neighbor table
   1  0.083  0.167  0.128-  30 1.45  17 1.45  29 1.45
   2  0.583  0.417  0.128-  31 1.45  25 1.45  18 1.45
   3  0.583  0.917  0.128-  19 1.45  22 1.45  23 1.45
   4  0.583  0.167  0.128-  23 1.45  26 1.45  31 1.45
   5  0.833  0.917  0.128-  32 1.45  19 1.45  17 1.45
   6  0.333  0.917  0.128-  22 1.45  27 1.45  26 1.45
   7  0.333  0.667  0.128-  28 1.45  22 1.45  24 1.66
   8  0.833  0.167  0.128-  17 1.45  23 1.45  20 1.45
   9  0.333  0.417  0.128-  25 1.45  29 1.45  24 1.66
  10  0.833  0.417  0.128-  20 1.45  31 1.45  21 1.45
  11  0.083  0.917  0.128-  27 1.45  32 1.45  30 1.45
  12  0.083  0.667  0.128-  28 1.45  21 1.45  27 1.45
  13  0.833  0.667  0.128-  21 1.45  18 1.45  32 1.45
  14  0.083  0.417  0.128-  29 1.45  20 1.45  28 1.45
  15  0.333  0.167  0.128-  26 1.45  30 1.45  25 1.45
  16  0.583  0.667  0.128-  18 1.45  19 1.45  24 1.66
  17  0.917  0.083  0.128-   8 1.45   1 1.45   5 1.45
  18  0.667  0.583  0.128-  16 1.45  13 1.45   2 1.45
  19  0.667  0.833  0.128-   3 1.45   5 1.45  16 1.45
  20  0.917  0.333  0.128-  10 1.45  14 1.45   8 1.45
  21  0.917  0.583  0.128-  13 1.45  12 1.45  10 1.45
  22  0.417  0.833  0.128-   6 1.45   3 1.45   7 1.45
  23  0.667  0.083  0.128-   4 1.45   8 1.45   3 1.45
  24  0.417  0.583  0.182-   7 1.66   9 1.66  16 1.66
  25  0.417  0.333  0.128-   9 1.45   2 1.45  15 1.45
  26  0.417  0.083  0.128-  15 1.45   4 1.45   6 1.45
  27  0.167  0.833  0.128-  11 1.45   6 1.45  12 1.45
  28  0.167  0.583  0.128-  12 1.45   7 1.45  14 1.45
  29  0.167  0.333  0.128-  14 1.45   9 1.45   1 1.45
  30  0.167  0.083  0.128-   1 1.45  15 1.45  11 1.45
  31  0.667  0.333  0.128-   2 1.45  10 1.45   4 1.45
  32  0.917  0.833  0.128-   5 1.45  11 1.45  13 1.45

  LATTYP: Found a hexagonal cell.
 ALAT       =    10.0497129125
 C/A-ratio  =     1.4925799504
  
  Lattice vectors:
  
 A1 = (   5.0248564562,  -8.7033066829,   0.0000000000)
 A2 = (   5.0248564562,   8.7033066829,   0.0000000000)
 A3 = (   0.0000000000,   0.0000000000,  15.0000000000)


Analysis of symmetry for initial positions (statically):
=====================================================================
 Subroutine PRICEL returns:
 Original cell was already a primitive cell.
 

 Routine SETGRP: Setting up the symmetry group for a 
 hexagonal supercell.


 Subroutine GETGRP returns: Found  6 space group operations
 (whereof  2 operations were pure point group operations)
 out of a pool of 24 trial point group operations.


The static configuration has the point symmetry C_1h.
 The point group associated with its full space group is C_3v.


Analysis of symmetry for dynamics (positions and initial velocities):
=====================================================================
 Subroutine PRICEL returns:
 Original cell was already a primitive cell.
 

 Routine SETGRP: Setting up the symmetry group for a 
 hexagonal supercell.


 Subroutine GETGRP returns: Found  6 space group operations
 (whereof  2 operations were pure point group operations)
 out of a pool of 24 trial point group operations.


The dynamic configuration has the point symmetry C_1h.
 The point group associated with its full space group is C_3v.


Analysis of structural, dynamic, and magnetic symmetry:
=====================================================================
 Subroutine PRICEL returns:
 Original cell was already a primitive cell.
 

 Routine SETGRP: Setting up the symmetry group for a 
 hexagonal supercell.


 Subroutine GETGRP returns: Found  6 space group operations
 (whereof  2 operations were pure point group operations)
 out of a pool of 24 trial point group operations.


The overall configuration has the point symmetry C_1h.
 The point group associated with its full space group is C_3v.


 Subroutine INISYM returns: Found  6 space group operations
 (whereof  2 operations are pure point group operations),
 and found     1 'primitive' translations


----------------------------------------------------------------------------------------

                                     Primitive cell                                     

  volume of cell :    1311.9860

  direct lattice vectors                    reciprocal lattice vectors
     5.024856456 -8.703306683  0.000000000     0.099505330 -0.057449429  0.000000000
     5.024856456  8.703306683  0.000000000     0.099505330  0.057449429 -0.000000000
     0.000000000  0.000000000 15.000000000    -0.000000000  0.000000000  0.066666667

  length of vectors
    10.049712912 10.049712912 15.000000000     0.114898858  0.114898858  0.066666667

  position of ions in fractional coordinates (direct lattice)
     0.083333333  0.166666667  0.128454417
     0.583333333  0.416666667  0.128454417
     0.583333333  0.916666667  0.128454417
     0.583333333  0.166666667  0.128454417
     0.833333333  0.916666667  0.128454417
     0.333333333  0.916666667  0.128454417
     0.333333333  0.666666667  0.128454417
     0.833333333  0.166666667  0.128454417
     0.333333333  0.416666667  0.128454417
     0.833333333  0.416666667  0.128454417
     0.083333333  0.916666667  0.128454417
     0.083333333  0.666666667  0.128454417
     0.833333333  0.666666667  0.128454417
     0.083333333  0.416666667  0.128454417
     0.333333333  0.166666667  0.128454417
     0.583333333  0.666666667  0.128454417
     0.916666667  0.083333333  0.128454417
     0.666666667  0.583333333  0.128454417
     0.666666667  0.833333333  0.128454417
     0.916666667  0.333333333  0.128454417
     0.916666667  0.583333333  0.128454417
     0.416666667  0.833333333  0.128454417
     0.666666667  0.083333333  0.128454417
     0.416666667  0.583333333  0.181787750
     0.416666667  0.333333333  0.128454417
     0.416666667  0.083333333  0.128454417
     0.166666667  0.833333333  0.128454417
     0.166666667  0.583333333  0.128454417
     0.166666667  0.333333333  0.128454417
     0.166666667  0.083333333  0.128454417
     0.666666667  0.333333333  0.128454417
     0.916666667  0.833333333  0.128454417

  ion indices of the primitive-cell ions
   primitive index   ion index
                 1           1
                 2           2
                 3           3
                 4           4
                 5           5
                 6           6
                 7           7
                 8           8
                 9           9
                10          10
                11          11
                12          12
                13          13
                14          14
                15          15
                16          16
                17          17
                18          18
                19          19
                20          20
                21          21
                22          22
                23          23
                24          24
                25          25
                26          26
                27          27
                28          28
                29          29
                30          30
                31          31
                32          32

----------------------------------------------------------------------------------------



 KPOINTS: k-points                                

Automatic generation of k-mesh.
 Grid dimensions read from file:
 generate k-points for:    3    3    1

 Generating k-lattice:

  Cartesian coordinates                     Fractional coordinates (reciprocal lattice)
     0.033168443 -0.019149810  0.000000000     0.333333333  0.000000000  0.000000000
     0.033168443  0.019149810 -0.000000000     0.000000000  0.333333333  0.000000000
    -0.000000000  0.000000000  0.066666667     0.000000000  0.000000000  1.000000000

  Length of vectors
     0.038299619  0.038299619  0.066666667

  Shift w.r.t. Gamma in fractional coordinates (k-lattice)
     0.000000000  0.000000000  0.000000000

 
 Subroutine IBZKPT returns following result:
 ===========================================
 
 Found      3 irreducible k-points:
 
 Following reciprocal coordinates:
            Coordinates               Weight
  0.000000  0.000000  0.000000      1.000000
  0.333333  0.000000  0.000000      6.000000
  0.333333  0.333333  0.000000      2.000000
 
 Following cartesian coordinates:
            Coordinates               Weight
  0.000000  0.000000  0.000000      1.000000
  0.033168 -0.019150  0.000000      6.000000
  0.066337 -0.000000  0.000000      2.000000
 


--------------------------------------------------------------------------------------------------------




 Dimension of arrays:
   k-points           NKPTS =      3   k-points in BZ     NKDIM =      3   number of bands    NBANDS=    128
   number of dos      NEDOS =    301   number of ions     NIONS =     32
   non local maximal  LDIM  =      4   non local SUM 2l+1 LMDIM =      8
   total plane-waves  NPLWV = 263424
   max r-space proj   IRMAX =    697   max aug-charges    IRDMAX=   3330
   dimension x,y,z NGX =    56 NGY =   56 NGZ =   84
   dimension x,y,z NGXF=   112 NGYF=  112 NGZF=  168
   support grid    NGXF=   112 NGYF=  112 NGZF=  168
   ions per type =              16  16
   NGX,Y,Z   is equivalent  to a cutoff of   9.26,  9.26,  9.31 a.u.
   NGXF,Y,Z  is equivalent  to a cutoff of  18.53, 18.53, 18.62 a.u.

 SYSTEM =  hBN                                     
 POSCAR =   B  N                                   

 Startparameter for this run:
   NWRITE =      2    write-flag & timer
   PREC   = normal    normal or accurate (medium, high low for compatibility)
   ISTART =      0    job   : 0-new  1-cont  2-samecut
   ICHARG =      2    charge: 1-file 2-atom 10-const
   ISPIN  =      2    spin polarized calculation?
   LNONCOLLINEAR =      F non collinear calculations
   LSORBIT =      F    spin-orbit coupling
   INIWAV =      1    electr: 0-lowe 1-rand  2-diag
   LASPH  =      F    aspherical Exc in radial PAW
 Electronic Relaxation 1
   ENCUT  =  500.0 eV  36.75 Ry    6.06 a.u.  18.32 18.32 27.35*2*pi/ulx,y,z
   ENINI  =  500.0     initial cutoff
   ENAUG  =  627.1 eV  augmentation charge cutoff
   NELM   =     60;   NELMIN=  2; NELMDL= -5     # of ELM steps 
   EDIFF  = 0.1E-04   stopping-criterion for ELM
   LREAL  =      T    real-space projection
   NLSPLINE    = F    spline interpolate recip. space projectors
   LCOMPAT=      F    compatible to vasp.4.4
   GGA_COMPAT  = T    GGA compatible to vasp.4.4-vasp.4.6
   LMAXPAW     = -100 max onsite density
   LMAXMIX     =    2 max onsite mixed and CHGCAR
   VOSKOWN=      0    Vosko Wilk Nusair interpolation
   ROPT   =    0.00000   0.00000
 Ionic relaxation
   EDIFFG = -.1E-01   stopping-criterion for IOM
   NSW    =      0    number of steps for IOM
   NBLOCK =      1;   KBLOCK =      1    inner block; outer block 
   IBRION =     -1    ionic relax: 0-MD 1-quasi-New 2-CG
   NFREE  =      0    steps in history (QN), initial steepest desc. (CG)
   ISIF   =      2    stress and relaxation
   IWAVPR =     10    prediction:  0-non 1-charg 2-wave 3-comb
   ISYM   =      1    0-nonsym 1-usesym 2-fastsym
   LCORR  =      T    Harris-Foulkes like correction to forces

   POTIM  = 0.5000    time-step for ionic-motion
   TEIN   =    0.0    initial temperature
   TEBEG  =    0.0;   TEEND  =   0.0 temperature during run
   SMASS  =  -3.00    Nose mass-parameter (am)
   estimated Nose-frequenzy (Omega)   =  0.10E-29 period in steps = 0.13E+47 mass=  -0.231E-26a.u.
   SCALEE = 1.0000    scale energy and forces
   NPACO  =    256;   APACO  = 10.0  distance and # of slots for P.C.
   PSTRESS=    0.0 pullay stress

  Mass of Ions in am
   POMASS =  10.81 14.00
  Ionic Valenz
   ZVAL   =   3.00  5.00
  Atomic Wigner-Seitz radii
   RWIGS  =  -1.00 -1.00
  virtual crystal weights 
   VCA    =   1.00  1.00
   NELECT =     128.0000    total number of electrons
   NUPDOWN=      -1.0000    fix difference up-down

 DOS related values:
   EMIN   =  10.00;   EMAX   =-10.00  energy-range for DOS
   EFERMI =   0.00;   METHOD = LEGACY      
   ISMEAR =     0;   SIGMA  =   0.10  broadening in eV -4-tet -1-fermi 0-gaus

 Electronic relaxation 2 (details)
   IALGO  =     68    algorithm
   LDIAG  =      T    sub-space diagonalisation (order eigenvalues)
   LSUBROT=      F    optimize rotation matrix (better conditioning)
   TURBO    =      0    0=normal 1=particle mesh
   IRESTART =      0    0=no restart 2=restart with 2 vectors
   NREBOOT  =      0    no. of reboots
   NMIN     =      0    reboot dimension
   EREF     =   0.00    reference energy to select bands
   IMIX   =      4    mixing-type and parameters
     AMIX     =   0.40;   BMIX     =  1.00
     AMIX_MAG =   1.60;   BMIX_MAG =  1.00
     AMIN     =   0.10
     WC   =   100.;   INIMIX=   1;  MIXPRE=   1;  MAXMIX= -45

 Intra band minimization:
   WEIMIN = 0.0000     energy-eigenvalue tresh-hold
   EBREAK =  0.20E-07  absolut break condition
   DEPER  =   0.30     relativ break condition  

   TIME   =   0.40     timestep for ELM

  volume/ion in A,a.u.               =      41.00       276.68
  Fermi-wavevector in a.u.,A,eV,Ry     =   0.753648  1.424188  7.727905  0.567985
  Thomas-Fermi vector in A             =   1.851135

 Write flags
   LWAVE        =      F    write WAVECAR
   LDOWNSAMPLE  =      F    k-point downsampling of WAVECAR
   LCHARG       =      F    write CHGCAR
   LVTOT        =      F    write LOCPOT, total local potential
   LVHAR        =      F    write LOCPOT, Hartree potential only
   LELF         =      F    write electronic localiz. function (ELF)
   LORBIT       =      0    0 simple, 1 ext, 2 COOP (PROOUT), +10 PAW based schemes


 Dipole corrections
   LMONO  =      F    monopole corrections only (constant potential shift)
   LDIPOL =      F    correct potential (dipole corrections)
   IDIPOL =      0    1-x, 2-y, 3-z, 4-all directions 
   EPSILON=  1.0000000 bulk dielectric constant

 Exchange correlation treatment:
   GGA     =    --    GGA type
   LEXCH   =     8    internal setting for exchange type
   LIBXC   =     F    Libxc                    
   VOSKOWN =     0    Vosko Wilk Nusair interpolation
   LHFCALC =     F    Hartree Fock is set to
   LHFONE  =     F    Hartree Fock one center treatment
   AEXX    =    0.0000 exact exchange contribution

 Linear response parameters
   LEPSILON=     F    determine dielectric tensor
   LRPA    =     F    only Hartree local field effects (RPA)
   LNABLA  =     F    use nabla operator in PAW spheres
   LVEL    =     F    velocity operator in full k-point grid
   CSHIFT  =0.1000    complex shift for real part using Kramers Kronig
   OMEGAMAX=  -1.0    maximum frequency
   DEG_THRESHOLD= 0.2000000E-02 threshold for treating states as degnerate
   RTIME   =   -0.100 relaxation time in fs
  (WPLASMAI=    0.000 imaginary part of plasma frequency in eV, 0.658/RTIME)
   DFIELD  = 0.0000000 0.0000000 0.0000000 field for delta impulse in time

  Optional k-point grid parameters
   LKPOINTS_OPT  =     F    use optional k-point grid
   KPOINTS_OPT_MODE=     1    mode for optional k-point grid

 Orbital magnetization related:
   ORBITALMAG=     F  switch on orbital magnetization
   LCHIMAG   =     F  perturbation theory with respect to B field
   DQ        =  0.001000  dq finite difference perturbation B field
   LLRAUG    =     F  two centre corrections for induced B field
   LBONE     =     F  B-component reconstruction in AE one-centre
   LVGVCALC  =     T  calculate vGv susceptibility
   LVGVAPPL  =     F  apply vGv susceptibility instead of pGv for G=0

 Random number generation:
   RANDOM_GENERATOR = DEFAULT
   PCG_SEED         = not used


--------------------------------------------------------------------------------------------------------


 Static calculation
 charge density and potential will be updated during run
 spin polarized calculation
 RMM-DIIS sequential band-by-band and
  variant of blocked Davidson during initial phase
 perform sub-space diagonalisation
    before iterative eigenvector-optimisation
 modified Broyden-mixing scheme, WC =      100.0
 initial mixing is a Kerker type mixing with AMIX =  0.4000 and BMIX =      1.0000
 Hartree-type preconditioning will be used
 using additional bands           64
 real space projection scheme for non local part
 use partial core corrections
 calculate Harris-corrections to forces   (improved forces if not selfconsistent)
 use gradient corrections 
 use of overlap-Matrix (Vanderbilt PP)
 Gauss-broadening in eV      SIGMA  =   0.10


--------------------------------------------------------------------------------------------------------


  energy-cutoff  :      500.00
  volume of cell :     1311.99
      direct lattice vectors                 reciprocal lattice vectors
     5.024856456 -8.703306683  0.000000000     0.099505330 -0.057449429  0.000000000
     5.024856456  8.703306683  0.000000000     0.099505330  0.057449429 -0.000000000
     0.000000000  0.000000000 15.000000000    -0.000000000  0.000000000  0.066666667

  length of vectors
    10.049712912 10.049712912 15.000000000     0.114898858  0.114898858  0.066666667



 k-points in units of 2pi/SCALE and weight: k-points                                
   0.00000000 -0.00000000  0.00000000       0.111
   0.03316844 -0.01914981  0.00000000       0.667
   0.06633689  0.00000000  0.00000000       0.222

 k-points in reciprocal lattice and weights: k-points                                
   0.00000000  0.00000000  0.00000000       0.111
   0.33333333  0.00000000  0.00000000       0.667
   0.33333333  0.33333333  0.00000000       0.222

 position of ions in fractional coordinates (direct lattice) 
   0.08333333  0.16666667  0.12845442
   0.58333333  0.41666667  0.12845442
   0.58333333  0.91666667  0.12845442
   0.58333333  0.16666667  0.12845442
   0.83333333  0.91666667  0.12845442
   0.33333333  0.91666667  0.12845442
   0.33333333  0.66666667  0.12845442
   0.83333333  0.16666667  0.12845442
   0.33333333  0.41666667  0.12845442
   0.83333333  0.41666667  0.12845442
   0.08333333  0.91666667  0.12845442
   0.08333333  0.66666667  0.12845442
   0.83333333  0.66666667  0.12845442
   0.08333333  0.41666667  0.12845442
   0.33333333  0.16666667  0.12845442
   0.58333333  0.66666667  0.12845442
   0.91666667  0.08333333  0.12845442
   0.66666667  0.58333333  0.12845442
   0.66666667  0.83333333  0.12845442
   0.91666667  0.33333333  0.12845442
   0.91666667  0.58333333  0.12845442
   0.41666667  0.83333333  0.12845442
   0.66666667  0.08333333  0.12845442
   0.41666667  0.58333333  0.18178775
   0.41666667  0.33333333  0.12845442
   0.41666667  0.08333333  0.12845442
   0.16666667  0.83333333  0.12845442
   0.16666667  0.58333333  0.12845442
   0.16666667  0.33333333  0.12845442
   0.16666667  0.08333333  0.12845442
   0.66666667  0.33333333  0.12845442
   0.91666667  0.83333333  0.12845442

 position of ions in cartesian coordinates  (Angst):
   1.25621411  0.72527556  1.92681625
   5.02485646 -1.45055111  1.92681625
   7.53728468  2.90110223  1.92681625
   3.76864234 -3.62637778  1.92681625
   8.79349880  0.72527556  1.92681625
   6.28107057  5.07692890  1.92681625
   5.02485646  2.90110223  1.92681625
   5.02485646 -5.80220446  1.92681625
   3.76864234  0.72527556  1.92681625
   6.28107057 -3.62637778  1.92681625
   5.02485646  7.25275557  1.92681625
   3.76864234  5.07692890  1.92681625
   7.53728468 -1.45055111  1.92681625
   2.51242823  2.90110223  1.92681625
   2.51242823 -1.45055111  1.92681625
   6.28107057  0.72527556  1.92681625
   5.02485646 -7.25275557  1.92681625
   6.28107057 -0.72527556  1.92681625
   7.53728468  1.45055111  1.92681625
   6.28107057 -5.07692890  1.92681625
   7.53728468 -2.90110223  1.92681625
   6.28107057  3.62637778  1.92681625
   3.76864234 -5.07692890  1.92681625
   5.02485646  1.45055111  2.72681625
   3.76864234 -0.72527556  1.92681625
   2.51242823 -2.90110223  1.92681625
   5.02485646  5.80220446  1.92681625
   3.76864234  3.62637778  1.92681625
   2.51242823  1.45055111  1.92681625
   1.25621411 -0.72527556  1.92681625
   5.02485646 -2.90110223  1.92681625
   8.79349880 -0.72527556  1.92681625



--------------------------------------------------------------------------------------------------------


 k-point   1 :   0.0000 0.0000 0.0000  plane waves:   33319
 k-point   2 :   0.3333 0.0000 0.0000  plane waves:   33326
 k-point   3 :   0.3333 0.3333 0.0000  plane waves:   33300

 maximum and minimum number of plane-waves per node :      8351     8315

 maximum number of plane-waves:     33326
 maximum index in each direction: 
   IXMAX=   18   IYMAX=   18   IZMAX=   27
   IXMIN=  -18   IYMIN=  -18   IZMIN=  -27


 real space projection operators:
  total allocation   :       1068.00 KBytes
  max/ min on nodes  :        268.12        265.88


 parallel 3D FFT for wavefunctions:
    minimum data exchange during FFTs selected (reduces bandwidth)
 parallel 3D FFT for charge:
    minimum data exchange during FFTs selected (reduces bandwidth)


 total amount of memory used by VASP MPI-rank0    43474. kBytes
=======================================================================

   base      :      30000. kBytes
   nonlr-proj:        685. kBytes
   fftplans  :       2696. kBytes
   grid      :       6813. kBytes
   one-center:         49. kBytes
   wavefun   :       3231. kBytes

     INWAV:  cpu time      0.0000: real time      0.0003
 Broyden mixing: mesh for mixing (old mesh)
   NGX = 37   NGY = 37   NGZ = 55
  (NGX  =112   NGY  =112   NGZ  =168)
  gives a total of  75295 points

 initial charge density was supplied:
 charge density of overlapping atoms calculated
 number of electron     128.0000000 magnetization      32.0000000
 keeping initial charge density in first step


--------------------------------------------------------------------------------------------------------


 Maximum index for non-local projection operator          162
 Maximum index for augmentation-charges           26 (set IRDMAX)


--------------------------------------------------------------------------------------------------------


 First call to EWALD:  gamma=   0.162
 Maximum number of real-space cells 3x 3x 2
 Maximum number of reciprocal cells 3x 3x 4

    FEWALD:  cpu time      0.0016: real time      0.0016


--------------------------------------- Ionic step        1  -------------------------------------------




--------------------------------------- Iteration      1(   1)  ---------------------------------------


    POTLOK:  cpu time      0.0652: real time      0.0656
    SETDIJ:  cpu time      0.0088: real time      0.0095
     EDDAV:  cpu time      1.4081: real time      1.4092
       DOS:  cpu time      0.0043: real time      0.0048
    --------------------------------------------
      LOOP:  cpu time      1.4864: real time      1.4891

 eigenvalue-minimisations  :  1536
 total energy-change (2. order) : 0.1043649E+04  (-0.4714602E+04)
 number of electron     128.0000000 magnetization      32.0000000
 augmentation part      128.0000000 magnetization      32.0000000

 Free energy of the ion-electron system (eV)
  ---------------------------------------------------
  alpha Z        PSCENC =        69.43433294
  Ewald energy   TEWEN  =     12359.09823215
  -Hartree energ DENC   =    -16482.68166936
  -exchange      EXHF   =         0.00000000
  -V(xc)+E(xc)   XCENC  =       434.47361765
  PAW double counting   =      3970.93085301    -3975.79025740
  entropy T*S    EENTRO =        -0.07790319
  eigenvalues    EBANDS =      -703.00147785
  atomic energy  EATOM  =      5371.26345991
  Solvation  Ediel_sol  =         0.00000000
  ---------------------------------------------------
  free energy    TOTEN  =      1043.64918784 eV

  energy without entropy =     1043.72709103  energy(sigma->0) =     1043.68813944


--------------------------------------------------------------------------------------------------------




--------------------------------------- Iteration      1(   2)  ---------------------------------------


     EDDAV:  cpu time      2.1319: real time      2.1359
       DOS:  cpu time      0.0004: real time      0.0007
    --------------------------------------------
      LOOP:  cpu time      2.1322: real time      2.1365

 eigenvalue-minimisations  :  2496
 total energy-change (2. order) :-0.1182931E+04  (-0.1108438E+04)
 number of electron     128.0000000 magnetization      32.0000000
 augmentation part      128.0000000 magnetization      32.0000000

 Free energy of the ion-electron system (eV)
  ---------------------------------------------------
  alpha Z        PSCENC =        69.43433294
  Ewald energy   TEWEN  =     12359.09823215
  -Hartree energ DENC   =    -16482.68166936
  -exchange      EXHF   =         0.00000000
  -V(xc)+E(xc)   XCENC  =       434.47361765
  PAW double counting   =      3970.93085301    -3975.79025740
  entropy T*S    EENTRO =        -0.00000000
  eigenvalues    EBANDS =     -1886.01008804
  atomic energy  EATOM  =      5371.26345991
  Solvation  Ediel_sol  =         0.00000000
  ---------------------------------------------------
  free energy    TOTEN  =      -139.28151916 eV

  energy without entropy =     -139.28151916  energy(sigma->0) =     -139.28151916


--------------------------------------------------------------------------------------------------------




--------------------------------------- Iteration      1(   3)  ---------------------------------------


     EDDAV:  cpu time      1.4506: real time      1.4515
       DOS:  cpu time      0.0003: real time      0.0006
    --------------------------------------------
      LOOP:  cpu time      1.4509: real time      1.4521

 eigenvalue-minimisations  :  1952
 total energy-change (2. order) :-0.1515117E+03  (-0.1500137E+03)
 number of electron     128.0000000 magnetization      32.0000000
 augmentation part      128.0000000 magnetization      32.0000000

 Free energy of the ion-electron system (eV)
  ---------------------------------------------------
  alpha Z        PSCENC =        69.43433294
  Ewald energy   TEWEN  =     12359.09823215
  -Hartree energ DENC   =    -16482.68166936
  -exchange      EXHF   =         0.00000000
  -V(xc)+E(xc)   XCENC  =       434.47361765
  PAW double counting   =      3970.93085301    -3975.79025740
  entropy T*S    EENTRO =        -0.00000000
  eigenvalues    EBANDS =     -2037.52181333
  atomic energy  EATOM  =      5371.26345991
  Solvation  Ediel_sol  =         0.00000000
  ---------------------------------------------------
  free energy    TOTEN  =      -290.79324446 eV

  energy without entropy =     -290.79324446  energy(sigma->0) =     -290.79324446


--------------------------------------------------------------------------------------------------------




--------------------------------------- Iteration      1(   4)  ---------------------------------------


     EDDAV:  cpu time      1.4141: real time      1.4150
       DOS:  cpu time      0.0002: real time      0.0006
    --------------------------------------------
      LOOP:  cpu time      1.4144: real time      1.4156

 eigenvalue-minimisations  :  2048
 total energy-change (2. order) :-0.4031145E+01  (-0.4019336E+01)
 number of electron     128.0000000 magnetization      32.0000000
 augmentation part      128.0000000 magnetization      32.0000000

 Free energy of the ion-electron system (eV)
  ---------------------------------------------------
  alpha Z        PSCENC =        69.43433294
  Ewald energy   TEWEN  =     12359.09823215
  -Hartree energ DENC   =    -16482.68166936
  -exchange      EXHF   =         0.00000000
  -V(xc)+E(xc)   XCENC  =       434.47361765
  PAW double counting   =      3970.93085301    -3975.79025740
  entropy T*S    EENTRO =        -0.00000000
  eigenvalues    EBANDS =     -2041.55295808
  atomic energy  EATOM  =      5371.26345991
  Solvation  Ediel_sol  =         0.00000000
  ---------------------------------------------------
  free energy    TOTEN  =      -294.82438920 eV

  energy without entropy =     -294.82438920  energy(sigma->0) =     -294.82438920


--------------------------------------------------------------------------------------------------------




--------------------------------------- Iteration      1(   5)  ---------------------------------------


     EDDAV:  cpu time      1.5149: real time      1.5159
       DOS:  cpu time      0.0003: real time      0.0007
    CHARGE:  cpu time      0.5325: real time      0.5330
    MIXING:  cpu time      0.0088: real time      0.0089
    --------------------------------------------
      LOOP:  cpu time      2.0566: real time      2.0586

 eigenvalue-minimisations  :  2176
 total energy-change (2. order) :-0.8456199E-01  (-0.8452729E-01)
 number of electron     127.9999994 magnetization      24.3574294
 augmentation part        5.0066267 magnetization      24.4005993

 Broyden mixing:
  rms(total) = 0.41871E+01    rms(broyden)= 0.41864E+01
  rms(prec ) = 0.45468E+01
  weight for this iteration     100.00

 Free energy of the ion-electron system (eV)
  ---------------------------------------------------
  alpha Z        PSCENC =        69.43433294
  Ewald energy   TEWEN  =     12359.09823215
  -Hartree energ DENC   =    -16482.68166936
  -exchange      EXHF   =         0.00000000
  -V(xc)+E(xc)   XCENC  =       434.47361765
  PAW double counting   =      3970.93085301    -3975.79025740
  entropy T*S    EENTRO =        -0.00000000
  eigenvalues    EBANDS =     -2041.63752007
  atomic energy  EATOM  =      5371.26345991
  Solvation  Ediel_sol  =         0.00000000
  ---------------------------------------------------
  free energy    TOTEN  =      -294.90895119 eV

  energy without entropy =     -294.90895119  energy(sigma->0) =     -294.90895119


--------------------------------------------------------------------------------------------------------




--------------------------------------- Iteration      1(   6)  ---------------------------------------


    POTLOK:  cpu time      0.0439: real time      0.0550
    SETDIJ:  cpu time      0.0042: real time      0.0042
    EDDIAG:  cpu time      0.2286: real time      0.2289
  RMM-DIIS:  cpu time      0.4625: real time      0.4625
    ORTHCH:  cpu time      0.0396: real time      0.0396
       DOS:  cpu time      0.0003: real time      0.0013
    CHARGE:  cpu time      0.5265: real time      0.5266
    MIXING:  cpu time      0.0349: real time      0.0351
    --------------------------------------------
      LOOP:  cpu time      1.3406: real time      1.3532

 eigenvalue-minimisations  :  1726
 total energy-change (2. order) : 0.1007482E+03  (-0.1135246E+02)
 number of electron     127.9999993 magnetization      16.5595785
 augmentation part        4.3469796 magnetization      16.0250867

 Broyden mixing:
  rms(total) = 0.20047E+01    rms(broyden)= 0.20044E+01
  rms(prec ) = 0.21817E+01
  weight for this iteration     100.00

 eigenvalues of (default mixing * dielectric matrix)
  average eigenvalue GAMMA=   1.1273
  1.1273

 Free energy of the ion-electron system (eV)
  ---------------------------------------------------
  alpha Z        PSCENC =        69.43433294
  Ewald energy   TEWEN  =     12359.09823215
  -Hartree energ DENC   =    -16755.59959984
  -exchange      EXHF   =         0.00000000
  -V(xc)+E(xc)   XCENC  =       505.39537922
  PAW double counting   =      7091.20010463    -7100.12356043
  entropy T*S    EENTRO =        -0.00000000
  eigenvalues    EBANDS =     -1734.82914681
  atomic energy  EATOM  =      5371.26345991
  Solvation  Ediel_sol  =         0.00000000
  ---------------------------------------------------
  free energy    TOTEN  =      -194.16079824 eV

  energy without entropy =     -194.16079824  energy(sigma->0) =     -194.16079824


--------------------------------------------------------------------------------------------------------




--------------------------------------- Iteration      1(   7)  ---------------------------------------


    POTLOK:  cpu time      0.0610: real time      0.0723
    SETDIJ:  cpu time      0.0086: real time      0.0086
    EDDIAG:  cpu time      0.2980: real time      0.2981
  RMM-DIIS:  cpu time      0.5053: real time      0.5054
    ORTHCH:  cpu time      0.0540: real time      0.0541
       DOS:  cpu time      0.0016: real time      0.0025
    CHARGE:  cpu time      0.6027: real time      0.6028
    MIXING:  cpu time      0.0095: real time      0.0095
    --------------------------------------------
      LOOP:  cpu time      1.5407: real time      1.5533

 eigenvalue-minimisations  :  1901
 total energy-change (2. order) :-0.3408633E+02  (-0.4137901E+01)
 number of electron     127.9999987 magnetization      12.9692955
 augmentation part        3.8072186 magnetization      12.3765443

 Broyden mixing:
  rms(total) = 0.12994E+01    rms(broyden)= 0.12991E+01
  rms(prec ) = 0.13717E+01
  weight for this iteration     100.00

 eigenvalues of (default mixing * dielectric matrix)
  average eigenvalue GAMMA=   1.0147
  1.1952  0.8342

 Free energy of the ion-electron system (eV)
  ---------------------------------------------------
  alpha Z        PSCENC =        69.43433294
  Ewald energy   TEWEN  =     12359.09823215
  -Hartree energ DENC   =    -16960.24406061
  -exchange      EXHF   =         0.00000000
  -V(xc)+E(xc)   XCENC  =       486.55112523
  PAW double counting   =     10616.39089312   -10627.49048849
  entropy T*S    EENTRO =        -0.00000000
  eigenvalues    EBANDS =     -1543.25062613
  atomic energy  EATOM  =      5371.26345991
  Solvation  Ediel_sol  =         0.00000000
  ---------------------------------------------------
  free energy    TOTEN  =      -228.24713189 eV

  energy without entropy =     -228.24713189  energy(sigma->0) =     -228.24713189


--------------------------------------------------------------------------------------------------------




--------------------------------------- Iteration      1(   8)  ---------------------------------------


    POTLOK:  cpu time      0.0519: real time      0.0649
    SETDIJ:  cpu time      0.0050: real time      0.0050
    EDDIAG:  cpu time      0.2830: real time      0.2831
  RMM-DIIS:  cpu time      0.5170: real time      0.5171
    ORTHCH:  cpu time      0.0516: real time      0.0516
       DOS:  cpu time      0.0004: real time      0.0012
    CHARGE:  cpu time      0.5954: real time      0.5955
    MIXING:  cpu time      0.0112: real time      0.0112
    --------------------------------------------
      LOOP:  cpu time      1.5154: real time      1.5296

 eigenvalue-minimisations  :  1956
 total energy-change (2. order) :-0.7898782E+01  (-0.5913832E+00)
 number of electron     127.9999988 magnetization       5.5578943
 augmentation part        3.8166672 magnetization       5.1262991

 Broyden mixing:
  rms(total) = 0.89544E+00    rms(broyden)= 0.89541E+00
  rms(prec ) = 0.93968E+00
  weight for this iteration     100.00

 eigenvalues of (default mixing * dielectric matrix)
  average eigenvalue GAMMA=   1.3232
  1.6219  1.6219  0.7257

 Free energy of the ion-electron system (eV)
  ---------------------------------------------------
  alpha Z        PSCENC =        69.43433294
  Ewald energy   TEWEN  =     12359.09823215
  -Hartree energ DENC   =    -16986.28299116
  -exchange      EXHF   =         0.00000000
  -V(xc)+E(xc)   XCENC  =       480.11960728
  PAW double counting   =     11946.94617584   -11958.51298967
  entropy T*S    EENTRO =        -0.00000000
  eigenvalues    EBANDS =     -1518.21174136
  atomic energy  EATOM  =      5371.26345991
  Solvation  Ediel_sol  =         0.00000000
  ---------------------------------------------------
  free energy    TOTEN  =      -236.14591408 eV

  energy without entropy =     -236.14591408  energy(sigma->0) =     -236.14591408


--------------------------------------------------------------------------------------------------------




--------------------------------------- Iteration      1(   9)  ---------------------------------------


    POTLOK:  cpu time      0.0552: real time      0.0678
    SETDIJ:  cpu time      0.0043: real time      0.0043
    EDDIAG:  cpu time      0.3073: real time      0.3089
  RMM-DIIS:  cpu time      0.5746: real time      0.5748
    ORTHCH:  cpu time      0.0394: real time      0.0394
       DOS:  cpu time      0.0003: real time      0.0012
    CHARGE:  cpu time      0.5254: real time      0.5254
    MIXING:  cpu time      0.0035: real time      0.0035
    --------------------------------------------
      LOOP:  cpu time      1.5099: real time      1.5253

 eigenvalue-minimisations  :  2160
 total energy-change (2. order) :-0.2650412E+02  (-0.2158607E+01)
 number of electron     127.9999986 magnetization       3.7608330
 augmentation part        3.9027128 magnetization       3.5358176

 Broyden mixing:
  rms(total) = 0.44297E+00    rms(broyden)= 0.44280E+00
  rms(prec ) = 0.47882E+00
  weight for this iteration     100.00

 eigenvalues of (default mixing * dielectric matrix)
  average eigenvalue GAMMA=   1.3637
  2.6885  1.3454  0.8016  0.6192

 Free energy of the ion-electron system (eV)
  ---------------------------------------------------
  alpha Z        PSCENC =        69.43433294
  Ewald energy   TEWEN  =     12359.09823215
  -Hartree energ DENC   =    -17047.98449665
  -exchange      EXHF   =         0.00000000
  -V(xc)+E(xc)   XCENC  =       461.50491620
  PAW double counting   =     14527.08959354   -14538.91527558
  entropy T*S    EENTRO =        -0.00000000
  eigenvalues    EBANDS =     -1464.14079658
  atomic energy  EATOM  =      5371.26345991
  Solvation  Ediel_sol  =         0.00000000
  ---------------------------------------------------
  free energy    TOTEN  =      -262.65003407 eV

  energy without entropy =     -262.65003407  energy(sigma->0) =     -262.65003407


--------------------------------------------------------------------------------------------------------




--------------------------------------- Iteration      1(  10)  ---------------------------------------


    POTLOK:  cpu time      0.0543: real time      0.0551
    SETDIJ:  cpu time      0.0042: real time      0.0042
    EDDIAG:  cpu time      0.2685: real time      0.2687
  RMM-DIIS:  cpu time      0.5596: real time      0.5599
    ORTHCH:  cpu time      0.0506: real time      0.0506
       DOS:  cpu time      0.0005: real time      0.0015
    CHARGE:  cpu time      0.5952: real time      0.5953
    MIXING:  cpu time      0.0075: real time      0.0075
    --------------------------------------------
      LOOP:  cpu time      1.5405: real time      1.5427

 eigenvalue-minimisations  :  2121
 total energy-change (2. order) :-0.6067433E+01  (-0.4636561E+00)
 number of electron     127.9999984 magnetization       3.0918224
 augmentation part        3.8219154 magnetization       2.9230667

 Broyden mixing:
  rms(total) = 0.26889E+00    rms(broyden)= 0.26876E+00
  rms(prec ) = 0.29543E+00
  weight for this iteration     100.00

 eigenvalues of (default mixing * dielectric matrix)
  average eigenvalue GAMMA=   1.2116
  2.5931  1.3978  0.7086  0.7086  0.6501

 Free energy of the ion-electron system (eV)
  ---------------------------------------------------
  alpha Z        PSCENC =        69.43433294
  Ewald energy   TEWEN  =     12359.09823215
  -Hartree energ DENC   =    -17078.50868896
  -exchange      EXHF   =         0.00000000
  -V(xc)+E(xc)   XCENC  =       458.75272263
  PAW double counting   =     14966.08655912   -14978.15940902
  entropy T*S    EENTRO =        -0.00000000
  eigenvalues    EBANDS =     -1436.68467536
  atomic energy  EATOM  =      5371.26345991
  Solvation  Ediel_sol  =         0.00000000
  ---------------------------------------------------
  free energy    TOTEN  =      -268.71746661 eV

  energy without entropy =     -268.71746661  energy(sigma->0) =     -268.71746661


--------------------------------------------------------------------------------------------------------




--------------------------------------- Iteration      1(  11)  ---------------------------------------


    POTLOK:  cpu time      0.0597: real time      0.0653
    SETDIJ:  cpu time      0.0061: real time      0.0061
    EDDIAG:  cpu time      0.2992: real time      0.2992
  RMM-DIIS:  cpu time      0.5600: real time      0.5603
    ORTHCH:  cpu time      0.0494: real time      0.0494
       DOS:  cpu time      0.0003: real time      0.0012
    CHARGE:  cpu time      0.6007: real time      0.6008
    MIXING:  cpu time      0.0065: real time      0.0065
    --------------------------------------------
      LOOP:  cpu time      1.5819: real time      1.5888

 eigenvalue-minimisations  :  2068
 total energy-change (2. order) :-0.3105801E+01  (-0.1778874E+00)
 number of electron     127.9999983 magnetization       1.2063159
 augmentation part        3.7599498 magnetization       1.0903994

 Broyden mixing:
  rms(total) = 0.17982E+00    rms(broyden)= 0.17968E+00
  rms(prec ) = 0.19774E+00
  weight for this iteration     100.00

 eigenvalues of (default mixing * dielectric matrix)
  average eigenvalue GAMMA=   1.4446
  2.6047  2.6047  1.0281  1.0281  0.7894  0.6128

 Free energy of the ion-electron system (eV)
  ---------------------------------------------------
  alpha Z        PSCENC =        69.43433294
  Ewald energy   TEWEN  =     12359.09823215
  -Hartree energ DENC   =    -17083.58373915
  -exchange      EXHF   =         0.00000000
  -V(xc)+E(xc)   XCENC  =       456.88485946
  PAW double counting   =     14735.87206439   -14747.85406596
  entropy T*S    EENTRO =        -0.00000000
  eigenvalues    EBANDS =     -1432.93841109
  atomic energy  EATOM  =      5371.26345991
  Solvation  Ediel_sol  =         0.00000000
  ---------------------------------------------------
  free energy    TOTEN  =      -271.82326735 eV

  energy without entropy =     -271.82326735  energy(sigma->0) =     -271.82326735


--------------------------------------------------------------------------------------------------------




--------------------------------------- Iteration      1(  12)  ---------------------------------------


    POTLOK:  cpu time      0.0641: real time      0.0649
    SETDIJ:  cpu time      0.0046: real time      0.0046
    EDDIAG:  cpu time      0.3161: real time      0.3162
  RMM-DIIS:  cpu time      0.5992: real time      0.5993
    ORTHCH:  cpu time      0.0390: real time      0.0390
       DOS:  cpu time      0.0003: real time      0.0012
    CHARGE:  cpu time      0.5243: real time      0.5245
    MIXING:  cpu time      0.0045: real time      0.0045
    --------------------------------------------
      LOOP:  cpu time      1.5522: real time      1.5542

 eigenvalue-minimisations  :  2264
 total energy-change (2. order) :-0.4829722E+01  (-0.2943200E+00)
 number of electron     127.9999982 magnetization       0.6039110
 augmentation part        3.7388566 magnetization       0.5633222

 Broyden mixing:
  rms(total) = 0.92373E-01    rms(broyden)= 0.92121E-01
  rms(prec ) = 0.10320E+00
  weight for this iteration     100.00

 eigenvalues of (default mixing * dielectric matrix)
  average eigenvalue GAMMA=   1.3691
  3.0651  2.0860  1.2486  0.9196  0.9196  0.7310  0.6140

 Free energy of the ion-electron system (eV)
  ---------------------------------------------------
  alpha Z        PSCENC =        69.43433294
  Ewald energy   TEWEN  =     12359.09823215
  -Hartree energ DENC   =    -17082.70590963
  -exchange      EXHF   =         0.00000000
  -V(xc)+E(xc)   XCENC  =       452.73381718
  PAW double counting   =     14475.47392536   -14487.15886933
  entropy T*S    EENTRO =        -0.00000000
  eigenvalues    EBANDS =     -1434.79197749
  atomic energy  EATOM  =      5371.26345991
  Solvation  Ediel_sol  =         0.00000000
  ---------------------------------------------------
  free energy    TOTEN  =      -276.65298892 eV

  energy without entropy =     -276.65298892  energy(sigma->0) =     -276.65298892


--------------------------------------------------------------------------------------------------------




--------------------------------------- Iteration      1(  13)  ---------------------------------------


    POTLOK:  cpu time      0.0545: real time      0.0548
    SETDIJ:  cpu time      0.0042: real time      0.0042
    EDDIAG:  cpu time      0.2237: real time      0.2237
  RMM-DIIS:  cpu time      0.5720: real time      0.5722
    ORTHCH:  cpu time      0.0507: real time      0.0507
       DOS:  cpu time      0.0006: real time      0.0015
    CHARGE:  cpu time      0.5935: real time      0.5936
    MIXING:  cpu time      0.0091: real time      0.0091
    --------------------------------------------
      LOOP:  cpu time      1.5082: real time      1.5098

 eigenvalue-minimisations  :  2143
 total energy-change (2. order) :-0.5547627E+00  (-0.3017690E-01)
 number of electron     127.9999982 magnetization       0.2092806
 augmentation part        3.7409685 magnetization       0.1779267

 Broyden mixing:
  rms(total) = 0.56359E-01    rms(broyden)= 0.56326E-01
  rms(prec ) = 0.66495E-01
  weight for this iteration     100.00

 eigenvalues of (default mixing * dielectric matrix)
  average eigenvalue GAMMA=   1.4318
  3.6792  2.1097  1.2971  1.2971  0.8911  0.8911  0.6056  0.6834

 Free energy of the ion-electron system (eV)
  ---------------------------------------------------
  alpha Z        PSCENC =        69.43433294
  Ewald energy   TEWEN  =     12359.09823215
  -Hartree energ DENC   =    -17085.47888726
  -exchange      EXHF   =         0.00000000
  -V(xc)+E(xc)   XCENC  =       452.28974461
  PAW double counting   =     14557.90219358   -14569.60970632
  entropy T*S    EENTRO =        -0.00000000
  eigenvalues    EBANDS =     -1432.10712124
  atomic energy  EATOM  =      5371.26345991
  Solvation  Ediel_sol  =         0.00000000
  ---------------------------------------------------
  free energy    TOTEN  =      -277.20775164 eV

  energy without entropy =     -277.20775164  energy(sigma->0) =     -277.20775164


--------------------------------------------------------------------------------------------------------




--------------------------------------- Iteration      1(  14)  ---------------------------------------


    POTLOK:  cpu time      0.0564: real time      0.0673
    SETDIJ:  cpu time      0.0043: real time      0.0043
    EDDIAG:  cpu time      0.2964: real time      0.2964
  RMM-DIIS:  cpu time      0.5736: real time      0.5739
    ORTHCH:  cpu time      0.0560: real time      0.0560
       DOS:  cpu time      0.0010: real time      0.0019
    CHARGE:  cpu time      0.5970: real time      0.5970
    MIXING:  cpu time      0.0113: real time      0.0113
    --------------------------------------------
      LOOP:  cpu time      1.5960: real time      1.6081

 eigenvalue-minimisations  :  2219
 total energy-change (2. order) :-0.4143643E+00  (-0.1755742E-01)
 number of electron     127.9999982 magnetization       0.0577030
 augmentation part        3.7559221 magnetization       0.0430021

 Broyden mixing:
  rms(total) = 0.40489E-01    rms(broyden)= 0.40462E-01
  rms(prec ) = 0.48590E-01
  weight for this iteration     100.00

 eigenvalues of (default mixing * dielectric matrix)
  average eigenvalue GAMMA=   1.4511
  3.8192  2.2483  1.8237  1.2002  0.9170  0.9170  0.8302  0.6106  0.6941

 Free energy of the ion-electron system (eV)
  ---------------------------------------------------
  alpha Z        PSCENC =        69.43433294
  Ewald energy   TEWEN  =     12359.09823215
  -Hartree energ DENC   =    -17083.51617890
  -exchange      EXHF   =         0.00000000
  -V(xc)+E(xc)   XCENC  =       451.63837210
  PAW double counting   =     14501.60809921   -14513.27611573
  entropy T*S    EENTRO =        -0.00000000
  eigenvalues    EBANDS =     -1433.87231756
  atomic energy  EATOM  =      5371.26345991
  Solvation  Ediel_sol  =         0.00000000
  ---------------------------------------------------
  free energy    TOTEN  =      -277.62211590 eV

  energy without entropy =     -277.62211590  energy(sigma->0) =     -277.62211590


--------------------------------------------------------------------------------------------------------




--------------------------------------- Iteration      1(  15)  ---------------------------------------


    POTLOK:  cpu time      0.0498: real time      0.0629
    SETDIJ:  cpu time      0.0050: real time      0.0050
    EDDIAG:  cpu time      0.3074: real time      0.3074
  RMM-DIIS:  cpu time      0.5763: real time      0.5765
    ORTHCH:  cpu time      0.0392: real time      0.0392
       DOS:  cpu time      0.0003: real time      0.0013
    CHARGE:  cpu time      0.5253: real time      0.5254
    MIXING:  cpu time      0.0038: real time      0.0038
    --------------------------------------------
      LOOP:  cpu time      1.5072: real time      1.5216

 eigenvalue-minimisations  :  2215
 total energy-change (2. order) :-0.5946542E-01  (-0.4717311E-02)
 number of electron     127.9999982 magnetization      -0.0013948
 augmentation part        3.7520455 magnetization      -0.0061958

 Broyden mixing:
  rms(total) = 0.15612E-01    rms(broyden)= 0.15584E-01
  rms(prec ) = 0.22269E-01
  weight for this iteration     100.00

 eigenvalues of (default mixing * dielectric matrix)
  average eigenvalue GAMMA=   1.5077
  3.9582  2.8047  2.0431  1.1702  1.1702  0.9559  0.9559  0.6068  0.7058  0.7058

 Free energy of the ion-electron system (eV)
  ---------------------------------------------------
  alpha Z        PSCENC =        69.43433294
  Ewald energy   TEWEN  =     12359.09823215
  -Hartree energ DENC   =    -17084.42509423
  -exchange      EXHF   =         0.00000000
  -V(xc)+E(xc)   XCENC  =       451.52346958
  PAW double counting   =     14415.57022549   -14427.24476390
  entropy T*S    EENTRO =        -0.00000000
  eigenvalues    EBANDS =     -1432.90144324
  atomic energy  EATOM  =      5371.26345991
  Solvation  Ediel_sol  =         0.00000000
  ---------------------------------------------------
  free energy    TOTEN  =      -277.68158132 eV

  energy without entropy =     -277.68158132  energy(sigma->0) =     -277.68158132


--------------------------------------------------------------------------------------------------------




--------------------------------------- Iteration      1(  16)  ---------------------------------------


    POTLOK:  cpu time      0.0443: real time      0.0547
    SETDIJ:  cpu time      0.0042: real time      0.0042
    EDDIAG:  cpu time      0.2256: real time      0.2256
  RMM-DIIS:  cpu time      0.5768: real time      0.5772
    ORTHCH:  cpu time      0.0392: real time      0.0392
       DOS:  cpu time      0.0003: real time      0.0012
    CHARGE:  cpu time      0.6294: real time      0.6294
    MIXING:  cpu time      0.0116: real time      0.0116
    --------------------------------------------
      LOOP:  cpu time      1.5314: real time      1.5430

 eigenvalue-minimisations  :  2209
 total energy-change (2. order) :-0.2595398E-01  (-0.1548158E-02)
 number of electron     127.9999982 magnetization      -0.0155084
 augmentation part        3.7468155 magnetization      -0.0168217

 Broyden mixing:
  rms(total) = 0.10891E-01    rms(broyden)= 0.10883E-01
  rms(prec ) = 0.15825E-01
  weight for this iteration     100.00

 eigenvalues of (default mixing * dielectric matrix)
  average eigenvalue GAMMA=   1.4782
  4.0055  2.7390  2.3791  1.2311  1.2311  0.9572  0.9572  0.7451  0.7451  0.6124
  0.6577

 Free energy of the ion-electron system (eV)
  ---------------------------------------------------
  alpha Z        PSCENC =        69.43433294
  Ewald energy   TEWEN  =     12359.09823215
  -Hartree energ DENC   =    -17086.49447001
  -exchange      EXHF   =         0.00000000
  -V(xc)+E(xc)   XCENC  =       451.53280818
  PAW double counting   =     14394.89310560   -14406.58081676
  entropy T*S    EENTRO =        -0.00000000
  eigenvalues    EBANDS =     -1430.85418730
  atomic energy  EATOM  =      5371.26345991
  Solvation  Ediel_sol  =         0.00000000
  ---------------------------------------------------
  free energy    TOTEN  =      -277.70753530 eV

  energy without entropy =     -277.70753530  energy(sigma->0) =     -277.70753530


--------------------------------------------------------------------------------------------------------




--------------------------------------- Iteration      1(  17)  ---------------------------------------


    POTLOK:  cpu time      0.0520: real time      0.0631
    SETDIJ:  cpu time      0.0043: real time      0.0043
    EDDIAG:  cpu time      0.2915: real time      0.2917
  RMM-DIIS:  cpu time      0.5894: real time      0.5894
    ORTHCH:  cpu time      0.0531: real time      0.0531
       DOS:  cpu time      0.0027: real time      0.0036
    CHARGE:  cpu time      0.5951: real time      0.5954
    MIXING:  cpu time      0.0052: real time      0.0052
    --------------------------------------------
      LOOP:  cpu time      1.5934: real time      1.6058

 eigenvalue-minimisations  :  2244
 total energy-change (2. order) :-0.8769230E-02  (-0.4912281E-03)
 number of electron     127.9999982 magnetization      -0.0236669
 augmentation part        3.7461801 magnetization      -0.0239723

 Broyden mixing:
  rms(total) = 0.91288E-02    rms(broyden)= 0.91272E-02
  rms(prec ) = 0.13018E-01
  weight for this iteration     100.00

 eigenvalues of (default mixing * dielectric matrix)
  average eigenvalue GAMMA=   1.4641
  4.0798  2.6110  2.6110  1.6203  1.0180  1.0180  0.9696  0.9696  0.7567  0.6135
  0.6511  0.6511

 Free energy of the ion-electron system (eV)
  ---------------------------------------------------
  alpha Z        PSCENC =        69.43433294
  Ewald energy   TEWEN  =     12359.09823215
  -Hartree energ DENC   =    -17088.12815049
  -exchange      EXHF   =         0.00000000
  -V(xc)+E(xc)   XCENC  =       451.53368102
  PAW double counting   =     14408.58944913   -14420.28287115
  entropy T*S    EENTRO =        -0.00000000
  eigenvalues    EBANDS =     -1429.22443804
  atomic energy  EATOM  =      5371.26345991
  Solvation  Ediel_sol  =         0.00000000
  ---------------------------------------------------
  free energy    TOTEN  =      -277.71630453 eV

  energy without entropy =     -277.71630453  energy(sigma->0) =     -277.71630453


--------------------------------------------------------------------------------------------------------




--------------------------------------- Iteration      1(  18)  ---------------------------------------


    POTLOK:  cpu time      0.0556: real time      0.0657
    SETDIJ:  cpu time      0.0058: real time      0.0059
    EDDIAG:  cpu time      0.3090: real time      0.3091
  RMM-DIIS:  cpu time      0.5782: real time      0.5783
    ORTHCH:  cpu time      0.0494: real time      0.0495
       DOS:  cpu time      0.0003: real time      0.0012
    CHARGE:  cpu time      0.5673: real time      0.5674
    MIXING:  cpu time      0.0035: real time      0.0035
    --------------------------------------------
      LOOP:  cpu time      1.5693: real time      1.5806

 eigenvalue-minimisations  :  2228
 total energy-change (2. order) : 0.1307882E-03  (-0.2065946E-03)
 number of electron     127.9999982 magnetization      -0.0187497
 augmentation part        3.7484695 magnetization      -0.0184257

 Broyden mixing:
  rms(total) = 0.31549E-02    rms(broyden)= 0.31530E-02
  rms(prec ) = 0.67071E-02
  weight for this iteration     100.00

 eigenvalues of (default mixing * dielectric matrix)
  average eigenvalue GAMMA=   1.5102
  4.1089  2.8068  2.8068  2.0558  1.1069  1.1069  0.9843  0.9843  0.9572  0.7913
  0.6798  0.6129  0.6311

 Free energy of the ion-electron system (eV)
  ---------------------------------------------------
  alpha Z        PSCENC =        69.43433294
  Ewald energy   TEWEN  =     12359.09823215
  -Hartree energ DENC   =    -17089.39006581
  -exchange      EXHF   =         0.00000000
  -V(xc)+E(xc)   XCENC  =       451.50036862
  PAW double counting   =     14415.67895593   -14427.36848020
  entropy T*S    EENTRO =        -0.00000000
  eigenvalues    EBANDS =     -1427.93297727
  atomic energy  EATOM  =      5371.26345991
  Solvation  Ediel_sol  =         0.00000000
  ---------------------------------------------------
  free energy    TOTEN  =      -277.71617374 eV

  energy without entropy =     -277.71617374  energy(sigma->0) =     -277.71617374


--------------------------------------------------------------------------------------------------------




--------------------------------------- Iteration      1(  19)  ---------------------------------------


    POTLOK:  cpu time      0.0443: real time      0.0543
    SETDIJ:  cpu time      0.0042: real time      0.0042
    EDDIAG:  cpu time      0.2248: real time      0.2248
  RMM-DIIS:  cpu time      0.5765: real time      0.5768
    ORTHCH:  cpu time      0.0392: real time      0.0392
       DOS:  cpu time      0.0003: real time      0.0012
    CHARGE:  cpu time      0.5938: real time      0.5939
    MIXING:  cpu time      0.0064: real time      0.0064
    --------------------------------------------
      LOOP:  cpu time      1.4894: real time      1.5007

 eigenvalue-minimisations  :  2236
 total energy-change (2. order) :-0.8809702E-02  (-0.1635128E-03)
 number of electron     127.9999982 magnetization      -0.0137863
 augmentation part        3.7500706 magnetization      -0.0141992

 Broyden mixing:
  rms(total) = 0.61297E-02    rms(broyden)= 0.61292E-02
  rms(prec ) = 0.73642E-02
  weight for this iteration     100.00

 eigenvalues of (default mixing * dielectric matrix)
  average eigenvalue GAMMA=   1.5468
  4.2194  3.5286  2.4438  2.4438  1.4545  1.0824  1.0824  0.9578  0.9578  0.7758
  0.7758  0.6950  0.6125  0.6250

 Free energy of the ion-electron system (eV)
  ---------------------------------------------------
  alpha Z        PSCENC =        69.43433294
  Ewald energy   TEWEN  =     12359.09823215
  -Hartree energ DENC   =    -17091.46298344
  -exchange      EXHF   =         0.00000000
  -V(xc)+E(xc)   XCENC  =       451.47869651
  PAW double counting   =     14422.27143505   -14433.95740597
  entropy T*S    EENTRO =        -0.00000000
  eigenvalues    EBANDS =     -1425.85075058
  atomic energy  EATOM  =      5371.26345991
  Solvation  Ediel_sol  =         0.00000000
  ---------------------------------------------------
  free energy    TOTEN  =      -277.72498344 eV

  energy without entropy =     -277.72498344  energy(sigma->0) =     -277.72498344


--------------------------------------------------------------------------------------------------------




--------------------------------------- Iteration      1(  20)  ---------------------------------------


    POTLOK:  cpu time      0.0519: real time      0.0654
    SETDIJ:  cpu time      0.0047: real time      0.0047
    EDDIAG:  cpu time      0.2801: real time      0.2802
  RMM-DIIS:  cpu time      0.5833: real time      0.5836
    ORTHCH:  cpu time      0.0547: real time      0.0547
       DOS:  cpu time      0.0003: real time      0.0013
    CHARGE:  cpu time      0.5953: real time      0.5954
    MIXING:  cpu time      0.0084: real time      0.0084
    --------------------------------------------
      LOOP:  cpu time      1.5787: real time      1.5936

 eigenvalue-minimisations  :  2221
 total energy-change (2. order) :-0.2738540E-02  (-0.4146860E-04)
 number of electron     127.9999982 magnetization      -0.0067999
 augmentation part        3.7492988 magnetization      -0.0071150

 Broyden mixing:
  rms(total) = 0.30473E-02    rms(broyden)= 0.30471E-02
  rms(prec ) = 0.37419E-02
  weight for this iteration     100.00

 eigenvalues of (default mixing * dielectric matrix)
  average eigenvalue GAMMA=   1.5897
  4.6605  3.9526  2.4850  2.4850  1.7126  1.1138  1.1138  1.0653  0.9012  0.9012
  0.7997  0.7488  0.6127  0.6466  0.6466

 Free energy of the ion-electron system (eV)
  ---------------------------------------------------
  alpha Z        PSCENC =        69.43433294
  Ewald energy   TEWEN  =     12359.09823215
  -Hartree energ DENC   =    -17092.65235800
  -exchange      EXHF   =         0.00000000
  -V(xc)+E(xc)   XCENC  =       451.49089696
  PAW double counting   =     14418.70413928   -14430.39042011
  entropy T*S    EENTRO =        -0.00000000
  eigenvalues    EBANDS =     -1424.67600510
  atomic energy  EATOM  =      5371.26345991
  Solvation  Ediel_sol  =         0.00000000
  ---------------------------------------------------
  free energy    TOTEN  =      -277.72772198 eV

  energy without entropy =     -277.72772198  energy(sigma->0) =     -277.72772198


--------------------------------------------------------------------------------------------------------




--------------------------------------- Iteration      1(  21)  ---------------------------------------


    POTLOK:  cpu time      0.0525: real time      0.0657
    SETDIJ:  cpu time      0.0050: real time      0.0050
    EDDIAG:  cpu time      0.3037: real time      0.3042
  RMM-DIIS:  cpu time      0.5744: real time      0.5745
    ORTHCH:  cpu time      0.0577: real time      0.0577
       DOS:  cpu time      0.0003: real time      0.0012
    CHARGE:  cpu time      0.6053: real time      0.6055
    MIXING:  cpu time      0.0072: real time      0.0073
    --------------------------------------------
      LOOP:  cpu time      1.6062: real time      1.6211

 eigenvalue-minimisations  :  2208
 total energy-change (2. order) :-0.9326408E-03  (-0.2218232E-04)
 number of electron     127.9999982 magnetization      -0.0027403
 augmentation part        3.7483874 magnetization      -0.0027581

 Broyden mixing:
  rms(total) = 0.92196E-03    rms(broyden)= 0.92130E-03
  rms(prec ) = 0.13112E-02
  weight for this iteration     100.00

 eigenvalues of (default mixing * dielectric matrix)
  average eigenvalue GAMMA=   1.6722
  5.6872  4.0653  2.5778  2.5778  2.0316  1.4854  1.1326  1.1326  0.9516  0.9516
  0.7910  0.7910  0.7020  0.6507  0.6114  0.6161

 Free energy of the ion-electron system (eV)
  ---------------------------------------------------
  alpha Z        PSCENC =        69.43433294
  Ewald energy   TEWEN  =     12359.09823215
  -Hartree energ DENC   =    -17093.61154007
  -exchange      EXHF   =         0.00000000
  -V(xc)+E(xc)   XCENC  =       451.50473441
  PAW double counting   =     14416.59648306   -14428.28363935
  entropy T*S    EENTRO =        -0.00000000
  eigenvalues    EBANDS =     -1423.73071766
  atomic energy  EATOM  =      5371.26345991
  Solvation  Ediel_sol  =         0.00000000
  ---------------------------------------------------
  free energy    TOTEN  =      -277.72865462 eV

  energy without entropy =     -277.72865462  energy(sigma->0) =     -277.72865462


--------------------------------------------------------------------------------------------------------




--------------------------------------- Iteration      1(  22)  ---------------------------------------


    POTLOK:  cpu time      0.0460: real time      0.0544
    SETDIJ:  cpu time      0.0042: real time      0.0042
    EDDIAG:  cpu time      0.2255: real time      0.2256
  RMM-DIIS:  cpu time      0.5495: real time      0.5495
    ORTHCH:  cpu time      0.0395: real time      0.0395
       DOS:  cpu time      0.0003: real time      0.0012
    CHARGE:  cpu time      0.5259: real time      0.5261
    MIXING:  cpu time      0.0040: real time      0.0040
    --------------------------------------------
      LOOP:  cpu time      1.3951: real time      1.4046

 eigenvalue-minimisations  :  2029
 total energy-change (2. order) :-0.3703063E-03  (-0.5753982E-05)
 number of electron     127.9999982 magnetization      -0.0017518
 augmentation part        3.7482975 magnetization      -0.0016700

 Broyden mixing:
  rms(total) = 0.91460E-03    rms(broyden)= 0.91445E-03
  rms(prec ) = 0.10380E-02
  weight for this iteration     100.00

 eigenvalues of (default mixing * dielectric matrix)
  average eigenvalue GAMMA=   1.7531
  7.0570  4.0870  2.7249  2.7249  2.3105  1.6112  1.1297  1.1297  0.9476  0.9476
  0.9634  0.8092  0.8092  0.6614  0.6614  0.6140  0.6140

 Free energy of the ion-electron system (eV)
  ---------------------------------------------------
  alpha Z        PSCENC =        69.43433294
  Ewald energy   TEWEN  =     12359.09823215
  -Hartree energ DENC   =    -17094.08330798
  -exchange      EXHF   =         0.00000000
  -V(xc)+E(xc)   XCENC  =       451.50790752
  PAW double counting   =     14415.38751213   -14427.07453260
  entropy T*S    EENTRO =        -0.00000000
  eigenvalues    EBANDS =     -1423.26262898
  atomic energy  EATOM  =      5371.26345991
  Solvation  Ediel_sol  =         0.00000000
  ---------------------------------------------------
  free energy    TOTEN  =      -277.72902493 eV

  energy without entropy =     -277.72902493  energy(sigma->0) =     -277.72902493


--------------------------------------------------------------------------------------------------------




--------------------------------------- Iteration      1(  23)  ---------------------------------------


    POTLOK:  cpu time      0.0433: real time      0.0548
    SETDIJ:  cpu time      0.0042: real time      0.0042
    EDDIAG:  cpu time      0.3160: real time      0.3164
  RMM-DIIS:  cpu time      0.5319: real time      0.5320
    ORTHCH:  cpu time      0.0397: real time      0.0397
       DOS:  cpu time      0.0003: real time      0.0013
    CHARGE:  cpu time      0.5263: real time      0.5266
    MIXING:  cpu time      0.0042: real time      0.0042
    --------------------------------------------
      LOOP:  cpu time      1.4658: real time      1.4790

 eigenvalue-minimisations  :  1951
 total energy-change (2. order) :-0.1763833E-03  (-0.1631064E-05)
 number of electron     127.9999982 magnetization      -0.0012605
 augmentation part        3.7482955 magnetization      -0.0012306

 Broyden mixing:
  rms(total) = 0.48149E-03    rms(broyden)= 0.48146E-03
  rms(prec ) = 0.54212E-03
  weight for this iteration     100.00

 eigenvalues of (default mixing * dielectric matrix)
  average eigenvalue GAMMA=   1.7933
  8.0201  4.0713  3.0126  2.6453  2.3877  1.6777  1.3526  1.1408  1.1408  0.9554
  0.9554  0.8113  0.8113  0.7604  0.6654  0.6138  0.6284  0.6284

 Free energy of the ion-electron system (eV)
  ---------------------------------------------------
  alpha Z        PSCENC =        69.43433294
  Ewald energy   TEWEN  =     12359.09823215
  -Hartree energ DENC   =    -17094.27464857
  -exchange      EXHF   =         0.00000000
  -V(xc)+E(xc)   XCENC  =       451.50913513
  PAW double counting   =     14415.37222371   -14427.05924236
  entropy T*S    EENTRO =        -0.00000000
  eigenvalues    EBANDS =     -1423.07269421
[...]
    122       6.8681      0.00000
    123       7.0173      0.00000
    124       7.1556      0.00000
    125       7.2858      0.00000
    126       7.3886      0.00000
    127       7.5183      0.00000
    128       8.0410      0.00000

 k-point     3 :       0.3333    0.3333    0.0000
  band No.  band energies     occupation 
      1     -21.3328      1.00000
      2     -21.3222      1.00000
      3     -21.1412      1.00000
      4     -20.2256      1.00000
      5     -20.2176      1.00000
      6     -20.0441      1.00000
      7     -19.3257      1.00000
      8     -19.3249      1.00000
      9     -19.3213      1.00000
     10     -19.3102      1.00000
     11     -19.2977      1.00000
     12     -18.8725      1.00000
     13     -18.4390      1.00000
     14     -18.4317      1.00000
     15     -18.1940      1.00000
     16     -17.3390      1.00000
     17     -12.6453      1.00000
     18     -12.5719      1.00000
     19     -12.4894      1.00000
     20     -11.9230      1.00000
     21     -11.7656      1.00000
     22     -11.7031      1.00000
     23     -11.6986      1.00000
     24     -11.6954      1.00000
     25     -11.4842      1.00000
     26     -11.2692      1.00000
     27     -11.0889      1.00000
     28      -9.7715      1.00000
     29      -9.6068      1.00000
     30      -9.6014      1.00000
     31      -9.5838      1.00000
     32      -9.3083      1.00000
     33      -9.2741      1.00000
     34      -8.8113      1.00000
     35      -8.8064      1.00000
     36      -8.5253      1.00000
     37      -8.3102      1.00000
     38      -8.3049      1.00000
     39      -8.3036      1.00000
     40      -8.2967      1.00000
     41      -8.1342      1.00000
     42      -8.1309      1.00000
     43      -8.0357      1.00000
     44      -7.6248      1.00000
     45      -7.5878      1.00000
     46      -7.3035      1.00000
     47      -7.2948      1.00000
     48      -7.2375      1.00000
     49      -6.8610      1.00000
     50      -6.6870      1.00000
     51      -6.6315      1.00000
     52      -6.2813      1.00000
     53      -6.2351      1.00000
     54      -6.2036      1.00000
     55      -5.9985      1.00000
     56      -5.9969      1.00000
     57      -5.9922      1.00000
     58      -5.7794      1.00000
     59      -5.2541      1.00000
     60      -5.0871      1.00000
     61      -4.8235      1.00000
     62      -4.6551      1.00000
     63      -4.5464      1.00000
     64      -4.1830      1.00000
     65      -0.3027      0.00000
     66       0.4883      0.00000
     67       0.5964      0.00000
     68       0.6739      0.00000
     69       0.8045      0.00000
     70       1.3001      0.00000
     71       1.3029      0.00000
     72       1.6937      0.00000
     73       1.8081      0.00000
     74       1.9156      0.00000
     75       2.0990      0.00000
     76       2.1022      0.00000
     77       2.1048      0.00000
     78       2.2612      0.00000
     79       2.2650      0.00000
     80       2.3445      0.00000
     81       2.7425      0.00000
     82       2.8465      0.00000
     83       2.8513      0.00000
     84       2.9344      0.00000
     85       3.2337      0.00000
     86       3.2387      0.00000
     87       3.5094      0.00000
     88       3.5287      0.00000
     89       3.6573      0.00000
     90       4.0420      0.00000
     91       4.5155      0.00000
     92       4.5185      0.00000
     93       4.6895      0.00000
     94       4.7519      0.00000
     95       4.8081      0.00000
     96       4.8211      0.00000
     97       4.8408      0.00000
     98       4.8709      0.00000
     99       4.9372      0.00000
    100       4.9434      0.00000
    101       4.9534      0.00000
    102       4.9619      0.00000
    103       5.0732      0.00000
    104       5.0886      0.00000
    105       5.2175      0.00000
    106       5.2878      0.00000
    107       5.3128      0.00000
    108       6.0612      0.00000
    109       6.3123      0.00000
    110       6.4277      0.00000
    111       6.5334      0.00000
    112       6.5537      0.00000
    113       6.5693      0.00000
    114       6.6103      0.00000
    115       6.7037      0.00000
    116       6.7182      0.00000
    117       6.7631      0.00000
    118       7.1576      0.00000
    119       7.2383      0.00000
    120       7.3786      0.00000
    121       7.4117      0.00000
    122       7.4430      0.00000
    123       7.5542      0.00000
    124       7.7654      0.00000
    125       8.0763      0.00000
    126       8.2765      0.00000
    127       8.3673      0.00000
    128       9.3294      0.00000


--------------------------------------------------------------------------------------------------------


 soft charge-density along one line, spin component           1
         0         1         2         3         4         5         6         7         8         9
 total charge-density along one line

 soft charge-density along one line, spin component           2
         0         1         2         3         4         5         6         7         8         9
 total charge-density along one line

 pseudopotential strength for first ion, spin component:           1
  6.786  10.359   0.000   0.000   0.000   0.000   0.001   0.000
 10.359  15.807   0.000   0.001   0.000   0.000   0.001   0.000
  0.000   0.000  -2.343  -0.000  -0.000  -4.029  -0.000  -0.000
  0.000   0.001  -0.000  -2.341  -0.000  -0.000  -4.022  -0.000
  0.000   0.000  -0.000  -0.000  -2.343  -0.000  -0.000  -4.029
  0.000   0.000  -4.029  -0.000  -0.000  -6.731  -0.000  -0.000
  0.001   0.001  -0.000  -4.022  -0.000  -0.000  -6.712  -0.000
  0.000   0.000  -0.000  -0.000  -4.029  -0.000  -0.000  -6.731
 pseudopotential strength for first ion, spin component:           2
  6.786  10.359   0.000   0.000   0.000   0.000   0.001   0.000
 10.359  15.807   0.000   0.001   0.000   0.000   0.001   0.000
  0.000   0.000  -2.343  -0.000  -0.000  -4.029  -0.000  -0.000
  0.000   0.001  -0.000  -2.341  -0.000  -0.000  -4.022  -0.000
  0.000   0.000  -0.000  -0.000  -2.343  -0.000  -0.000  -4.029
  0.000   0.000  -4.029  -0.000  -0.000  -6.731  -0.000  -0.000
  0.001   0.001  -0.000  -4.022  -0.000  -0.000  -6.712  -0.000
  0.000   0.000  -0.000  -0.000  -4.029  -0.000  -0.000  -6.731
 total augmentation occupancy for first ion, spin component:           1
  4.764  -1.494  -0.001  -0.076  -0.002  -0.000   0.016   0.000
 -1.494   0.497  -0.000   0.050  -0.001   0.000  -0.012   0.000
 -0.001  -0.000   4.912  -0.007  -0.004  -1.479   0.001   0.001
 -0.076   0.050  -0.007   1.592  -0.012   0.001  -0.388   0.002
 -0.002  -0.001  -0.004  -0.012   4.907   0.001   0.002  -1.479
 -0.000   0.000  -1.479   0.001   0.001   0.461  -0.000   0.000
  0.016  -0.012   0.001  -0.388   0.002  -0.000   0.096  -0.000
  0.000   0.000   0.001   0.002  -1.479   0.000  -0.000   0.461
 total augmentation occupancy for first ion, spin component:           2
  0.000  -0.000  -0.000  -0.000   0.000   0.000   0.000  -0.000
 -0.000   0.000   0.000   0.000  -0.000  -0.000  -0.000   0.000
 -0.000   0.000   0.000  -0.000  -0.000  -0.000   0.000   0.000
 -0.000   0.000  -0.000   0.000   0.000   0.000  -0.000  -0.000
  0.000  -0.000  -0.000   0.000   0.000   0.000   0.000  -0.000
  0.000  -0.000  -0.000   0.000   0.000   0.000  -0.000  -0.000
  0.000  -0.000   0.000  -0.000   0.000  -0.000   0.000   0.000
 -0.000   0.000   0.000  -0.000  -0.000  -0.000   0.000   0.000


------------------------ aborting loop because EDIFF is reached ----------------------------------------


    CHARGE:  cpu time      0.6066: real time      0.6067
    FORLOC:  cpu time      0.0093: real time      0.0093
    FORNL :  cpu time      0.1257: real time      0.1259
    STRESS:  cpu time      0.3655: real time      0.3676
    FORCOR:  cpu time      0.0376: real time      0.0376
    FORHAR:  cpu time      0.0062: real time      0.0063
    MIXING:  cpu time      0.0034: real time      0.0034
    OFIELD:  cpu time      0.0000: real time      0.0000

 ---------------------------------------------------------------------------------------------

         DFTD3 V3.0 Rev 1        
 IVDW         = 11
 DF pbe       
 parameters
 VDW_S6       =    1.0000
 VDW_S8       =    0.7220
 VDW_SR       =    1.2170
 rs18     =    1.0000
 alpha6   =   14.0000
 alpha8   =   16.0000
 k1-k3    =   16.0000    1.3333   -4.0000
 VDW_RADIUS   =   50.2022 A
 VDW_CNRADIUS =   21.1671 A
 Edisp (eV)   -1.17611

 E6    (eV) :    -0.5984
 E8    (eV) :    -0.5777
 % E8        : 49.12
    FORVDW:  cpu time      0.1425: real time      0.1467

  FORCE on cell =-STRESS in cart. coord.  units (eV):
  Direction    XX          YY          ZZ          XY          YZ          ZX
  --------------------------------------------------------------------------------------
  Alpha Z    69.43433    69.43433    69.43433
  Ewald   16636.40499 16636.40499-20913.72153    -0.00000    -0.00000    -0.00000
  Hartree 16607.96880 16607.96880-16121.52985    -0.00000    -0.00000    -0.00000
  E(xc)    -503.03404  -503.03403  -517.63758    -0.00000    -0.00000    -0.00000
  Local  -34635.88671-34635.88564 35410.61238     0.00000    -0.00000     0.00000
  n-local  -229.44530  -229.54137  -216.07175    -0.08295     0.00098    -0.00142
  augment    17.39928    17.39821    20.07988    -0.00000    -0.00000     0.00000
  Kinetic  2039.44889  2040.68917  2277.91787     1.07039     0.01118    -0.01935
  Fock        0.00000     0.00000     0.00000     0.00000     0.00000     0.00000
  vdW        -0.81670    -0.81670    -0.01293     0.00000    -0.00000     0.00000
  -------------------------------------------------------------------------------------
  Total       2.04565     2.04565     9.07082     0.00000     0.00000     0.00000
  in kB       2.49812     2.49812    11.07715     0.00000     0.00000     0.00000
  external pressure =        5.36 kB  Pullay stress =        0.00 kB


 VOLUME and BASIS-vectors are now :
 -----------------------------------------------------------------------------
  energy-cutoff  :      500.00
  volume of cell :     1311.99
      direct lattice vectors                 reciprocal lattice vectors
     5.024856456 -8.703306683  0.000000000     0.099505330 -0.057449429  0.000000000
     5.024856456  8.703306683  0.000000000     0.099505330  0.057449429 -0.000000000
     0.000000000  0.000000000 15.000000000    -0.000000000  0.000000000  0.066666667

  length of vectors
    10.049712912 10.049712912 15.000000000     0.114898858  0.114898858  0.066666667


 FORCES acting on ions
    electron-ion (+dipol)            ewald-force                    non-local-force                 convergence-correction
 -----------------------------------------------------------------------------------------------
   -.825E+00 -.226E+00 0.337E+01   0.761E+00 0.160E+00 -.355E+01   0.410E-01 0.178E-01 -.457E+00   0.274E-04 0.183E-04 0.833E-04
   0.471E-07 -.260E+01 0.701E+01   0.213E-13 0.260E+01 -.679E+01   0.116E-17 -.573E-01 -.537E+00   0.224E-13 0.542E-04 0.105E-03
   0.225E+01 0.130E+01 0.701E+01   -.225E+01 -.130E+01 -.679E+01   0.497E-01 0.287E-01 -.537E+00   -.470E-04 -.271E-04 0.105E-03
   0.373E-01 -.215E-01 0.247E+01   -.771E-01 0.445E-01 -.243E+01   0.671E-02 -.387E-02 -.493E+00   -.361E-05 0.208E-05 0.688E-04
   0.825E+00 -.226E+00 0.337E+01   -.761E+00 0.160E+00 -.355E+01   -.410E-01 0.178E-01 -.457E+00   -.274E-04 0.183E-04 0.833E-04
   0.216E+00 0.827E+00 0.337E+01   -.242E+00 -.739E+00 -.355E+01   -.511E-02 -.444E-01 -.457E+00   0.217E-05 -.328E-04 0.833E-04
   0.545E-07 0.333E+02 0.422E+02   0.333E-14 -.337E+02 -.383E+02   0.110E-16 -.958E+00 -.181E+00   0.456E-14 -.188E-03 0.187E-03
   0.155E-07 0.431E-01 0.247E+01   0.933E-14 -.891E-01 -.243E+01   -.346E-18 0.775E-02 -.493E+00   0.739E-14 -.416E-05 0.688E-04
   -.288E+02 -.166E+02 0.422E+02   0.292E+02 0.168E+02 -.383E+02   0.829E+00 0.479E+00 -.181E+00   0.162E-03 0.938E-04 0.187E-03
   -.373E-01 -.215E-01 0.247E+01   0.771E-01 0.445E-01 -.243E+01   -.671E-02 -.387E-02 -.493E+00   0.361E-05 0.208E-05 0.688E-04
   0.342E-08 -.374E-05 0.231E+01   0.426E-13 0.129E-10 -.221E+01   -.940E-18 0.140E-18 -.509E+00   -.353E-13 0.109E-08 0.679E-04
   -.216E+00 0.827E+00 0.337E+01   0.242E+00 -.739E+00 -.355E+01   0.511E-02 -.444E-01 -.457E+00   -.217E-05 -.328E-04 0.833E-04
   0.608E+00 -.601E+00 0.337E+01   -.519E+00 0.579E+00 -.355E+01   -.359E-01 0.266E-01 -.457E+00   -.295E-04 0.145E-04 0.833E-04
   -.225E+01 0.130E+01 0.701E+01   0.225E+01 -.130E+01 -.679E+01   -.497E-01 0.287E-01 -.537E+00   0.470E-04 -.271E-04 0.105E-03
   -.608E+00 -.601E+00 0.337E+01   0.519E+00 0.579E+00 -.355E+01   0.359E-01 0.266E-01 -.457E+00   0.295E-04 0.145E-04 0.833E-04
   0.288E+02 -.166E+02 0.422E+02   -.292E+02 0.168E+02 -.383E+02   -.829E+00 0.479E+00 -.181E+00   -.162E-03 0.938E-04 0.187E-03
   0.203E-07 -.993E-02 0.426E+01   0.142E-13 -.130E-10 -.437E+01   -.798E-20 0.385E-01 -.235E+01   -.201E-13 0.338E-04 0.119E-03
   0.377E+01 -.647E+01 0.174E+02   -.379E+01 0.657E+01 -.164E+02   -.340E-01 0.395E-03 -.430E+01   -.122E-03 0.445E-04 0.184E-03
   0.749E+01 -.282E-01 0.174E+02   -.759E+01 -.130E-10 -.164E+02   -.173E-01 0.292E-01 -.430E+01   -.993E-04 0.830E-04 0.184E-03
   -.584E+00 0.337E+00 0.463E+01   0.617E+00 -.356E+00 -.466E+01   0.121E-01 -.697E-02 -.247E+01   0.474E-04 -.274E-04 0.118E-03
   0.860E-02 0.497E-02 0.426E+01   -.711E-14 -.129E-10 -.437E+01   -.333E-01 -.192E-01 -.235E+01   -.292E-04 -.169E-04 0.119E-03
   0.372E+01 0.650E+01 0.174E+02   -.379E+01 -.657E+01 -.164E+02   0.166E-01 -.296E-01 -.430E+01   0.222E-04 -.127E-03 0.184E-03
   0.584E+00 0.337E+00 0.463E+01   -.617E+00 -.356E+00 -.466E+01   -.121E-01 -.697E-02 -.247E+01   -.474E-04 -.274E-04 0.118E-03
   -.432E-06 0.239E-05 -.288E+03   -.320E-13 -.554E-11 0.305E+03   0.136E-18 -.508E-19 -.248E+02   0.232E-13 0.176E-09 0.653E-03
   -.377E+01 -.647E+01 0.174E+02   0.379E+01 0.657E+01 -.164E+02   0.340E-01 0.395E-03 -.430E+01   0.122E-03 0.445E-04 0.184E-03
   -.860E-02 0.497E-02 0.426E+01   -.107E-13 -.130E-10 -.437E+01   0.333E-01 -.192E-01 -.235E+01   0.292E-04 -.169E-04 0.119E-03
   0.357E-07 0.717E+00 0.467E+01   -.284E-13 -.713E+00 -.466E+01   0.258E-18 -.173E-01 -.250E+01   -.355E-13 -.365E-04 0.127E-03
   -.372E+01 0.650E+01 0.174E+02   0.379E+01 -.657E+01 -.164E+02   -.166E-01 -.296E-01 -.430E+01   -.222E-04 -.127E-03 0.184E-03
   -.749E+01 -.282E-01 0.174E+02   0.759E+01 -.129E-10 -.164E+02   0.173E-01 0.292E-01 -.430E+01   0.993E-04 0.830E-04 0.184E-03
   -.621E+00 -.359E+00 0.467E+01   0.617E+00 0.356E+00 -.466E+01   0.150E-01 0.865E-02 -.250E+01   0.316E-04 0.182E-04 0.127E-03
   -.109E-07 -.675E+00 0.463E+01   -.338E-13 0.713E+00 -.466E+01   -.126E-18 0.139E-01 -.247E+01   0.385E-13 0.547E-04 0.118E-03
   0.621E+00 -.359E+00 0.467E+01   -.617E+00 0.356E+00 -.466E+01   -.150E-01 0.865E-02 -.250E+01   -.316E-04 0.182E-04 0.127E-03
 -----------------------------------------------------------------------------------------------
   0.527E-06 -.214E-04 0.348E+02   -.303E-13 0.799E-14 0.622E-14   0.000E+00 -.625E-16 -.795E+02   0.504E-13 -.372E-07 0.449E-02


 POSITION                                       TOTAL-FORCE (eV/Angst)
 -----------------------------------------------------------------------------------
      1.25621      0.72528      1.92682        -0.022085     -0.048289      0.758007
      5.02486     -1.45055      1.92682        -0.000000     -0.054123      1.087142
      7.53728      2.90110      1.92682         0.046872      0.027062      1.087142
      3.76864     -3.62638      1.92682        -0.033099      0.019110      0.946198
      8.79350      0.72528      1.92682         0.022085     -0.048289      0.758007
      6.28107      5.07693      1.92682        -0.030777      0.043271      0.758007
      5.02486      2.90110      1.92682         0.000000     -1.359162      5.152528
      5.02486     -5.80220      1.92682        -0.000000     -0.038220      0.946198
      3.76864      0.72528      1.92682         1.177069      0.679581      5.152528
      6.28107     -3.62638      1.92682         0.033099      0.019110      0.946198
      5.02486      7.25276      1.92682        -0.000000     -0.000000      0.988885
      3.76864      5.07693      1.92682         0.030777      0.043271      0.758007
      7.53728     -1.45055      1.92682         0.052862      0.005018      0.758007
      2.51243      2.90110      1.92682        -0.046872      0.027062      1.087142
      2.51243     -1.45055      1.92682        -0.052862      0.005018      0.758007
      6.28107      0.72528      1.92682        -1.177069      0.679581      5.152528
      5.02486     -7.25276      1.92682        -0.000000      0.028564     -1.061698
      6.28107     -0.72528      1.92682        -0.057690      0.097821     -1.860381
      7.53728      1.45055      1.92682        -0.113560      0.001050     -1.860381
      6.28107     -5.07693      1.92682         0.044781     -0.025854     -1.098211
      7.53728     -2.90110      1.92682        -0.024737     -0.014282     -1.061698
      6.28107      3.62638      1.92682        -0.055871     -0.098871     -1.860381
      3.76864     -5.07693      1.92682        -0.044781     -0.025854     -1.098211
      5.02486      1.45055      2.72682        -0.000000     -0.000000     -6.176429
      3.76864     -0.72528      1.92682         0.057690      0.097821     -1.860381
      2.51243     -2.90110      1.92682         0.024737     -0.014282     -1.061698
      5.02486      5.80220      1.92682        -0.000000     -0.012621     -1.092031
      3.76864      3.62638      1.92682         0.055871     -0.098871     -1.860381
      2.51243      1.45055      1.92682         0.113560      0.001050     -1.860381
      1.25621     -0.72528      1.92682         0.010930      0.006310     -1.092031
      5.02486     -2.90110      1.92682        -0.000000      0.051709     -1.098211
      8.79350     -0.72528      1.92682        -0.010930      0.006310     -1.092031
 -----------------------------------------------------------------------------------
    total drift:                                0.000001     -0.000021    -44.737438


--------------------------------------------------------------------------------------------------------



  FREE ENERGIE OF THE ION-ELECTRON SYSTEM (eV)
  ---------------------------------------------------
  free  energy   TOTEN  =      -278.90538677 eV

  energy  without entropy=     -278.90538677  energy(sigma->0) =     -278.90538677



--------------------------------------------------------------------------------------------------------


    POTLOK:  cpu time      0.0520: real time      0.0520


--------------------------------------------------------------------------------------------------------


     LOOP+:  cpu time     40.7995: real time     41.0540
    4ORBIT:  cpu time      0.0000: real time      0.0000

 total amount of memory used by VASP MPI-rank0    43474. kBytes
=======================================================================

   base      :      30000. kBytes
   nonlr-proj:        685. kBytes
   fftplans  :       2696. kBytes
   grid      :       6813. kBytes
   one-center:         49. kBytes
   wavefun   :       3231. kBytes

  
  
 General timing and accounting informations for this job:
 ========================================================
  
                  Total CPU time used (sec):       44.232
                            User time (sec):       39.815
                          System time (sec):        4.417
                         Elapsed time (sec):       44.534
  
                   Maximum memory used (kb):      170980.
                   Average memory used (kb):          N/A
  
                          Minor page faults:       152618
                          Major page faults:         1221
                 Voluntary context switches:         2757
