 vasp.6.4.2 20Jul23 (build Mar  9 2024 05:55:09) complex                         
 executed on             LinuxGNU date 2025.02.08  18:12:01
 running  128 mpi-ranks, with    1 threads/rank, on    1 nodes
 distrk:  each k-point on  128 cores,    1 groups
 distr:  one band on NCORE=   4 cores,   32 groups


--------------------------------------------------------------------------------------------------------


 INCAR:
   SYSTEM = hBN
   PREC = Normal
   NWRITE = 2
   ISTART = 0
   ICHARG = 2
   LWAVE = F
   LCHARG = F
   LAECHG = F
   ALGO = Fast
   ISYM = 1
   LREAL = Auto
   NSW = 0
   EDIFF = 1E-5
   EDIFFG = -1E-2
   IBRION = -1
   ISIF = 2
   POTIM = 0.5
   ENCUT = 500
   ISMEAR = 0
   SIGMA = 0.1
   ISPIN = 2
   IVDW = 11
   NCORE = 4

 POTCAR:    PAW_PBE B 06Sep2000                   
 POTCAR:    PAW_PBE N 08Apr2002                   
 -----------------------------------------------------------------------------
|                                                                             |
|           W    W    AA    RRRRR   N    N  II  N    N   GGGG   !!!           |
|           W    W   A  A   R    R  NN   N  II  NN   N  G    G  !!!           |
|           W    W  A    A  R    R  N N  N  II  N N  N  G       !!!           |
|           W WW W  AAAAAA  RRRRR   N  N N  II  N  N N  G  GGG   !            |
|           WW  WW  A    A  R   R   N   NN  II  N   NN  G    G                |
|           W    W  A    A  R    R  N    N  II  N    N   GGGG   !!!           |
|                                                                             |
|     You use a magnetic or noncollinear calculation, but did not specify     |
|     the initial magnetic moment with the MAGMOM tag. Note that a            |
|     default of 1 will be used for all atoms. This ferromagnetic setup       |
|     may break the symmetry of the crystal, in particular it may rule        |
|     out finding an antiferromagnetic solution. Thence, we recommend         |
|     setting the initial magnetic moment manually or verifying carefully     |
|     that this magnetic setup is desired.                                    |
|                                                                             |
 -----------------------------------------------------------------------------

 POTCAR:    PAW_PBE B 06Sep2000                   
   VRHFIN =B: s2p1                                                                                  
   LEXCH  = PE                                                                                      
   EATOM  =    71.1703 eV,    5.2309 Ry                                                             
                                                                                                    
   TITEL  = PAW_PBE B 06Sep2000                                                                     
   LULTRA =        F    use ultrasoft PP ?                                                          
   IUNSCR =        1    unscreen: 0-lin 1-nonlin 2-no                                               
   RPACOR =    1.200    partial core radius                                                         
   POMASS =   10.811; ZVAL   =    3.000    mass and valenz                                          
   RCORE  =    1.700    outmost cutoff radius                                                       
   RWIGS  =    1.710; RWIGS  =    0.905    wigner-seitz radius (au A)                               
   ENMAX  =  318.614; ENMIN  =  238.960 eV                                                          
   ICORE  =        2    local potential                                                             
   LCOR   =        T    correct aug charges                                                         
   LPAW   =        T    paw PP                                                                      
   EAUG   =  535.514                                                                                
   DEXC   =    0.000                                                                                
   RMAX   =    1.732    core radius for proj-oper                                                   
   RAUG   =    1.300    factor for augmentation sphere                                              
   RDEP   =    1.757    radius for radial grids                                                     
   RDEPT  =    1.436    core radius for aug-charge                                                  
                                                                                                    
   Atomic configuration                                                                             
    4 entries                                                                                       
     n  l   j            E        occ.                                                              
     1  0  0.50      -180.5896   2.0000                                                             
     2  0  0.50        -9.4431   2.0000                                                             
     2  1  0.50        -3.6068   1.0000                                                             
     3  2  1.50        -4.0817   0.0000                                                             
   Description                                                                                      
     l       E           TYP  RCUT    TYP  RCUT                                                     
     0     -9.4430752     23  1.500                                                                 
     0      0.8675899     23  1.500                                                                 
     1     -3.6067955     23  1.700                                                                 
     1      6.1086146     23  1.700                                                                 
     2     -4.0817478      7  1.700                                                                 
  local pseudopotential read in
  partial core-charges read in
  partial kinetic energy density read in
  atomic valenz-charges read in
  non local Contribution for L=           0  read in
    real space projection operators read in
  non local Contribution for L=           0  read in
    real space projection operators read in
  non local Contribution for L=           1  read in
    real space projection operators read in
  non local Contribution for L=           1  read in
    real space projection operators read in
    PAW grid and wavefunctions read in

   number of l-projection  operators is LMAX  =           4
   number of lm-projection operators is LMMAX =           8

 POTCAR:    PAW_PBE N 08Apr2002                   
   VRHFIN =N: s2p3                                                                                  
   LEXCH  = PE                                                                                      
   EATOM  =   264.5486 eV,   19.4438 Ry                                                             
                                                                                                    
   TITEL  = PAW_PBE N 08Apr2002                                                                     
   LULTRA =        F    use ultrasoft PP ?                                                          
   IUNSCR =        1    unscreen: 0-lin 1-nonlin 2-no                                               
   RPACOR =    1.200    partial core radius                                                         
   POMASS =   14.001; ZVAL   =    5.000    mass and valenz                                          
   RCORE  =    1.500    outmost cutoff radius                                                       
   RWIGS  =    1.400; RWIGS  =    0.741    wigner-seitz radius (au A)                               
   ENMAX  =  400.000; ENMIN  =  300.000 eV                                                          
   ICORE  =        2    local potential                                                             
   LCOR   =        T    correct aug charges                                                         
   LPAW   =        T    paw PP                                                                      
   EAUG   =  627.112                                                                                
   DEXC   =    0.000                                                                                
   RMAX   =    1.529    core radius for proj-oper                                                   
   RAUG   =    1.300    factor for augmentation sphere                                              
   RDEP   =    1.514    radius for radial grids                                                     
   RDEPT  =    1.338    core radius for aug-charge                                                  
                                                                                                    
   Atomic configuration                                                                             
    4 entries                                                                                       
     n  l   j            E        occ.                                                              
     1  0  0.50      -384.7179   2.0000                                                             
     2  0  0.50       -18.5828   2.0000                                                             
     2  1  0.50        -7.0898   3.0000                                                             
     3  2  1.50        -6.8029   0.0000                                                             
   Description                                                                                      
     l       E           TYP  RCUT    TYP  RCUT                                                     
     0    -18.5828119     23  1.200                                                                 
     0    -13.5018863     23  1.200                                                                 
     1     -7.0897853     23  1.500                                                                 
     1      9.5240782     23  1.500                                                                 
     2     -6.8029130      7  1.500                                                                 
  local pseudopotential read in
  partial core-charges read in
  partial kinetic energy density read in
  atomic valenz-charges read in
  non local Contribution for L=           0  read in
    real space projection operators read in
  non local Contribution for L=           0  read in
    real space projection operators read in
  non local Contribution for L=           1  read in
    real space projection operators read in
  non local Contribution for L=           1  read in
    real space projection operators read in
    PAW grid and wavefunctions read in

   number of l-projection  operators is LMAX  =           4
   number of lm-projection operators is LMMAX =           8

 Optimization of the real space projectors (new method)

 maximal supplied QI-value         = 22.11
 optimisation between [QCUT,QGAM] = [ 11.28, 22.77] = [ 35.61,145.23] Ry 
 Optimized for a Real-space Cutoff    1.16 Angstroem

   l    n(q)    QCUT    max X(q) W(low)/X(q) W(high)/X(q)  e(spline) 
   0      8    11.276    53.033    0.48E-03    0.56E-03    0.11E-06
   0      8    11.276    34.740    0.48E-03    0.55E-03    0.11E-06
   1      7    11.276    30.949    0.26E-03    0.19E-04    0.19E-06
   1      7    11.276    19.518    0.24E-03    0.14E-04    0.18E-06
 Optimization of the real space projectors (new method)

 maximal supplied QI-value         = 25.13
 optimisation between [QCUT,QGAM] = [ 11.31, 22.87] = [ 35.82,146.48] Ry 
 Optimized for a Real-space Cutoff    1.27 Angstroem

   l    n(q)    QCUT    max X(q) W(low)/X(q) W(high)/X(q)  e(spline) 
   0      9    11.310    79.467    0.75E-04    0.16E-03    0.36E-06
   0      9    11.310    66.151    0.74E-04    0.16E-03    0.36E-06
   1      8    11.310    17.416    0.35E-03    0.12E-03    0.95E-06
   1      8    11.310    12.382    0.37E-03    0.13E-03    0.98E-06
  PAW_PBE B 06Sep2000                   :
 energy of atom  1       EATOM=  -71.1703
 kinetic energy error for atom=    0.0012 (will be added to EATOM!!)
  PAW_PBE N 08Apr2002                   :
 energy of atom  2       EATOM= -264.5486
 kinetic energy error for atom=    0.0138 (will be added to EATOM!!)


 POSCAR:  B  N
  positions in cartesian coordinates
  No initial velocities read in
 exchange correlation table for  LEXCH =        8
   RHO(1)=    0.500       N(1)  =     2000
   RHO(2)=  100.500       N(2)  =     4000



--------------------------------------------------------------------------------------------------------


 ion  position               nearest neighbor table
   1  0.083  0.167  0.128-  30 1.45  17 1.45  29 1.45
   2  0.583  0.417  0.128-  31 1.45  25 1.45  18 1.45
   3  0.583  0.917  0.128-  19 1.45  22 1.45  23 1.45
   4  0.583  0.167  0.128-  23 1.45  26 1.45  31 1.45
   5  0.833  0.917  0.128-  32 1.45  19 1.45  17 1.45
   6  0.333  0.917  0.128-  22 1.45  27 1.45  26 1.45
   7  0.333  0.667  0.128-  28 1.45  22 1.45  24 1.66
   8  0.833  0.167  0.128-  17 1.45  23 1.45  20 1.45
   9  0.333  0.417  0.128-  25 1.45  29 1.45  24 1.66
  10  0.833  0.417  0.128-  20 1.45  31 1.45  21 1.45
  11  0.083  0.917  0.128-  27 1.45  32 1.45  30 1.45
  12  0.083  0.667  0.128-  28 1.45  21 1.45  27 1.45
  13  0.833  0.667  0.128-  21 1.45  18 1.45  32 1.45
  14  0.083  0.417  0.128-  29 1.45  20 1.45  28 1.45
  15  0.333  0.167  0.128-  26 1.45  30 1.45  25 1.45
  16  0.583  0.667  0.128-  18 1.45  19 1.45  24 1.66
  17  0.917  0.083  0.128-   8 1.45   1 1.45   5 1.45
  18  0.667  0.583  0.128-  16 1.45  13 1.45   2 1.45
  19  0.667  0.833  0.128-   3 1.45   5 1.45  16 1.45
  20  0.917  0.333  0.128-  10 1.45  14 1.45   8 1.45
  21  0.917  0.583  0.128-  13 1.45  12 1.45  10 1.45
  22  0.417  0.833  0.128-   6 1.45   3 1.45   7 1.45
  23  0.667  0.083  0.128-   4 1.45   8 1.45   3 1.45
  24  0.417  0.583  0.182-   7 1.66   9 1.66  16 1.66
  25  0.417  0.333  0.128-   9 1.45   2 1.45  15 1.45
  26  0.417  0.083  0.128-  15 1.45   4 1.45   6 1.45
  27  0.167  0.833  0.128-  11 1.45   6 1.45  12 1.45
  28  0.167  0.583  0.128-  12 1.45   7 1.45  14 1.45
  29  0.167  0.333  0.128-  14 1.45   9 1.45   1 1.45
  30  0.167  0.083  0.128-   1 1.45  15 1.45  11 1.45
  31  0.667  0.333  0.128-   2 1.45  10 1.45   4 1.45
  32  0.917  0.833  0.128-   5 1.45  11 1.45  13 1.45

  LATTYP: Found a hexagonal cell.
 ALAT       =    10.0497129125
 C/A-ratio  =     1.4925799504
  
  Lattice vectors:
  
 A1 = (   5.0248564562,  -8.7033066829,   0.0000000000)
 A2 = (   5.0248564562,   8.7033066829,   0.0000000000)
 A3 = (   0.0000000000,   0.0000000000,  15.0000000000)


Analysis of symmetry for initial positions (statically):
=====================================================================
 Subroutine PRICEL returns:
 Original cell was already a primitive cell.
 

 Routine SETGRP: Setting up the symmetry group for a 
 hexagonal supercell.


 Subroutine GETGRP returns: Found  6 space group operations
 (whereof  2 operations were pure point group operations)
 out of a pool of 24 trial point group operations.


The static configuration has the point symmetry C_1h.
 The point group associated with its full space group is C_3v.


Analysis of symmetry for dynamics (positions and initial velocities):
=====================================================================
 Subroutine PRICEL returns:
 Original cell was already a primitive cell.
 

 Routine SETGRP: Setting up the symmetry group for a 
 hexagonal supercell.


 Subroutine GETGRP returns: Found  6 space group operations
 (whereof  2 operations were pure point group operations)
 out of a pool of 24 trial point group operations.


The dynamic configuration has the point symmetry C_1h.
 The point group associated with its full space group is C_3v.


Analysis of structural, dynamic, and magnetic symmetry:
=====================================================================
 Subroutine PRICEL returns:
 Original cell was already a primitive cell.
 

 Routine SETGRP: Setting up the symmetry group for a 
 hexagonal supercell.


 Subroutine GETGRP returns: Found  6 space group operations
 (whereof  2 operations were pure point group operations)
 out of a pool of 24 trial point group operations.


The overall configuration has the point symmetry C_1h.
 The point group associated with its full space group is C_3v.


 Subroutine INISYM returns: Found  6 space group operations
 (whereof  2 operations are pure point group operations),
 and found     1 'primitive' translations


----------------------------------------------------------------------------------------

                                     Primitive cell                                     

  volume of cell :    1311.9860

  direct lattice vectors                    reciprocal lattice vectors
     5.024856456 -8.703306683  0.000000000     0.099505330 -0.057449429  0.000000000
     5.024856456  8.703306683  0.000000000     0.099505330  0.057449429 -0.000000000
     0.000000000  0.000000000 15.000000000    -0.000000000  0.000000000  0.066666667

  length of vectors
    10.049712912 10.049712912 15.000000000     0.114898858  0.114898858  0.066666667

  position of ions in fractional coordinates (direct lattice)
     0.083333333  0.166666667  0.128454417
     0.583333333  0.416666667  0.128454417
     0.583333333  0.916666667  0.128454417
     0.583333333  0.166666667  0.128454417
     0.833333333  0.916666667  0.128454417
     0.333333333  0.916666667  0.128454417
     0.333333333  0.666666667  0.128454417
     0.833333333  0.166666667  0.128454417
     0.333333333  0.416666667  0.128454417
     0.833333333  0.416666667  0.128454417
     0.083333333  0.916666667  0.128454417
     0.083333333  0.666666667  0.128454417
     0.833333333  0.666666667  0.128454417
     0.083333333  0.416666667  0.128454417
     0.333333333  0.166666667  0.128454417
     0.583333333  0.666666667  0.128454417
     0.916666667  0.083333333  0.128454417
     0.666666667  0.583333333  0.128454417
     0.666666667  0.833333333  0.128454417
     0.916666667  0.333333333  0.128454417
     0.916666667  0.583333333  0.128454417
     0.416666667  0.833333333  0.128454417
     0.666666667  0.083333333  0.128454417
     0.416666667  0.583333333  0.181787750
     0.416666667  0.333333333  0.128454417
     0.416666667  0.083333333  0.128454417
     0.166666667  0.833333333  0.128454417
     0.166666667  0.583333333  0.128454417
     0.166666667  0.333333333  0.128454417
     0.166666667  0.083333333  0.128454417
     0.666666667  0.333333333  0.128454417
     0.916666667  0.833333333  0.128454417

  ion indices of the primitive-cell ions
   primitive index   ion index
                 1           1
                 2           2
                 3           3
                 4           4
                 5           5
                 6           6
                 7           7
                 8           8
                 9           9
                10          10
                11          11
                12          12
                13          13
                14          14
                15          15
                16          16
                17          17
                18          18
                19          19
                20          20
                21          21
                22          22
                23          23
                24          24
                25          25
                26          26
                27          27
                28          28
                29          29
                30          30
                31          31
                32          32

----------------------------------------------------------------------------------------



 KPOINTS: k-points                                

Automatic generation of k-mesh.
 Grid dimensions read from file:
 generate k-points for:    3    3    1

 Generating k-lattice:

  Cartesian coordinates                     Fractional coordinates (reciprocal lattice)
     0.033168443 -0.019149810  0.000000000     0.333333333  0.000000000  0.000000000
     0.033168443  0.019149810 -0.000000000     0.000000000  0.333333333  0.000000000
    -0.000000000  0.000000000  0.066666667     0.000000000  0.000000000  1.000000000

  Length of vectors
     0.038299619  0.038299619  0.066666667

  Shift w.r.t. Gamma in fractional coordinates (k-lattice)
     0.000000000  0.000000000  0.000000000

 
 Subroutine IBZKPT returns following result:
 ===========================================
 
 Found      3 irreducible k-points:
 
 Following reciprocal coordinates:
            Coordinates               Weight
  0.000000  0.000000  0.000000      1.000000
  0.333333  0.000000  0.000000      6.000000
  0.333333  0.333333  0.000000      2.000000
 
 Following cartesian coordinates:
            Coordinates               Weight
  0.000000  0.000000  0.000000      1.000000
  0.033168 -0.019150  0.000000      6.000000
  0.066337 -0.000000  0.000000      2.000000
 


--------------------------------------------------------------------------------------------------------




 Dimension of arrays:
   k-points           NKPTS =      3   k-points in BZ     NKDIM =      3   number of bands    NBANDS=    128
   number of dos      NEDOS =    301   number of ions     NIONS =     32
   non local maximal  LDIM  =      4   non local SUM 2l+1 LMDIM =      8
   total plane-waves  NPLWV = 263424
   max r-space proj   IRMAX =   1780   max aug-charges    IRDMAX=   3330
   dimension x,y,z NGX =    56 NGY =   56 NGZ =   84
   dimension x,y,z NGXF=   112 NGYF=  112 NGZF=  168
   support grid    NGXF=   112 NGYF=  112 NGZF=  168
   ions per type =              16  16
   NGX,Y,Z   is equivalent  to a cutoff of   9.26,  9.26,  9.31 a.u.
   NGXF,Y,Z  is equivalent  to a cutoff of  18.53, 18.53, 18.62 a.u.

 SYSTEM =  hBN                                     
 POSCAR =   B  N                                   

 Startparameter for this run:
   NWRITE =      2    write-flag & timer
   PREC   = normal    normal or accurate (medium, high low for compatibility)
   ISTART =      0    job   : 0-new  1-cont  2-samecut
   ICHARG =      2    charge: 1-file 2-atom 10-const
   ISPIN  =      2    spin polarized calculation?
   LNONCOLLINEAR =      F non collinear calculations
   LSORBIT =      F    spin-orbit coupling
   INIWAV =      1    electr: 0-lowe 1-rand  2-diag
   LASPH  =      F    aspherical Exc in radial PAW
 Electronic Relaxation 1
   ENCUT  =  500.0 eV  36.75 Ry    6.06 a.u.  18.32 18.32 27.35*2*pi/ulx,y,z
   ENINI  =  500.0     initial cutoff
   ENAUG  =  627.1 eV  augmentation charge cutoff
   NELM   =     60;   NELMIN=  2; NELMDL= -5     # of ELM steps 
   EDIFF  = 0.1E-04   stopping-criterion for ELM
   LREAL  =      T    real-space projection
   NLSPLINE    = F    spline interpolate recip. space projectors
   LCOMPAT=      F    compatible to vasp.4.4
   GGA_COMPAT  = T    GGA compatible to vasp.4.4-vasp.4.6
   LMAXPAW     = -100 max onsite density
   LMAXMIX     =    2 max onsite mixed and CHGCAR
   VOSKOWN=      0    Vosko Wilk Nusair interpolation
   ROPT   =   -0.00050  -0.00050
 Ionic relaxation
   EDIFFG = -.1E-01   stopping-criterion for IOM
   NSW    =      0    number of steps for IOM
   NBLOCK =      1;   KBLOCK =      1    inner block; outer block 
   IBRION =     -1    ionic relax: 0-MD 1-quasi-New 2-CG
   NFREE  =      0    steps in history (QN), initial steepest desc. (CG)
   ISIF   =      2    stress and relaxation
   IWAVPR =     10    prediction:  0-non 1-charg 2-wave 3-comb
   ISYM   =      1    0-nonsym 1-usesym 2-fastsym
   LCORR  =      T    Harris-Foulkes like correction to forces

   POTIM  = 0.5000    time-step for ionic-motion
   TEIN   =    0.0    initial temperature
   TEBEG  =    0.0;   TEEND  =   0.0 temperature during run
   SMASS  =  -3.00    Nose mass-parameter (am)
   estimated Nose-frequenzy (Omega)   =  0.10E-29 period in steps = 0.13E+47 mass=  -0.231E-26a.u.
   SCALEE = 1.0000    scale energy and forces
   NPACO  =    256;   APACO  = 10.0  distance and # of slots for P.C.
   PSTRESS=    0.0 pullay stress

  Mass of Ions in am
   POMASS =  10.81 14.00
  Ionic Valenz
   ZVAL   =   3.00  5.00
  Atomic Wigner-Seitz radii
   RWIGS  =  -1.00 -1.00
  virtual crystal weights 
   VCA    =   1.00  1.00
   NELECT =     128.0000    total number of electrons
   NUPDOWN=      -1.0000    fix difference up-down

 DOS related values:
   EMIN   =  10.00;   EMAX   =-10.00  energy-range for DOS
   EFERMI =   0.00;   METHOD = LEGACY      
   ISMEAR =     0;   SIGMA  =   0.10  broadening in eV -4-tet -1-fermi 0-gaus

 Electronic relaxation 2 (details)
   IALGO  =     68    algorithm
   LDIAG  =      T    sub-space diagonalisation (order eigenvalues)
   LSUBROT=      F    optimize rotation matrix (better conditioning)
   TURBO    =      0    0=normal 1=particle mesh
   IRESTART =      0    0=no restart 2=restart with 2 vectors
   NREBOOT  =      0    no. of reboots
   NMIN     =      0    reboot dimension
   EREF     =   0.00    reference energy to select bands
   IMIX   =      4    mixing-type and parameters
     AMIX     =   0.40;   BMIX     =  1.00
     AMIX_MAG =   1.60;   BMIX_MAG =  1.00
     AMIN     =   0.10
     WC   =   100.;   INIMIX=   1;  MIXPRE=   1;  MAXMIX= -45

 Intra band minimization:
   WEIMIN = 0.0000     energy-eigenvalue tresh-hold
   EBREAK =  0.20E-07  absolut break condition
   DEPER  =   0.30     relativ break condition  

   TIME   =   0.40     timestep for ELM

  volume/ion in A,a.u.               =      41.00       276.68
  Fermi-wavevector in a.u.,A,eV,Ry     =   0.753648  1.424188  7.727905  0.567985
  Thomas-Fermi vector in A             =   1.851135

 Write flags
   LWAVE        =      F    write WAVECAR
   LDOWNSAMPLE  =      F    k-point downsampling of WAVECAR
   LCHARG       =      F    write CHGCAR
   LVTOT        =      F    write LOCPOT, total local potential
   LVHAR        =      F    write LOCPOT, Hartree potential only
   LELF         =      F    write electronic localiz. function (ELF)
   LORBIT       =      0    0 simple, 1 ext, 2 COOP (PROOUT), +10 PAW based schemes


 Dipole corrections
   LMONO  =      F    monopole corrections only (constant potential shift)
   LDIPOL =      F    correct potential (dipole corrections)
   IDIPOL =      0    1-x, 2-y, 3-z, 4-all directions 
   EPSILON=  1.0000000 bulk dielectric constant

 Exchange correlation treatment:
   GGA     =    --    GGA type
   LEXCH   =     8    internal setting for exchange type
   LIBXC   =     F    Libxc                    
   VOSKOWN =     0    Vosko Wilk Nusair interpolation
   LHFCALC =     F    Hartree Fock is set to
   LHFONE  =     F    Hartree Fock one center treatment
   AEXX    =    0.0000 exact exchange contribution

 Linear response parameters
   LEPSILON=     F    determine dielectric tensor
   LRPA    =     F    only Hartree local field effects (RPA)
   LNABLA  =     F    use nabla operator in PAW spheres
   LVEL    =     F    velocity operator in full k-point grid
   CSHIFT  =0.1000    complex shift for real part using Kramers Kronig
   OMEGAMAX=  -1.0    maximum frequency
   DEG_THRESHOLD= 0.2000000E-02 threshold for treating states as degnerate
   RTIME   =   -0.100 relaxation time in fs
  (WPLASMAI=    0.000 imaginary part of plasma frequency in eV, 0.658/RTIME)
   DFIELD  = 0.0000000 0.0000000 0.0000000 field for delta impulse in time

  Optional k-point grid parameters
   LKPOINTS_OPT  =     F    use optional k-point grid
   KPOINTS_OPT_MODE=     1    mode for optional k-point grid

 Orbital magnetization related:
   ORBITALMAG=     F  switch on orbital magnetization
   LCHIMAG   =     F  perturbation theory with respect to B field
   DQ        =  0.001000  dq finite difference perturbation B field
   LLRAUG    =     F  two centre corrections for induced B field
   LBONE     =     F  B-component reconstruction in AE one-centre
   LVGVCALC  =     T  calculate vGv susceptibility
   LVGVAPPL  =     F  apply vGv susceptibility instead of pGv for G=0

 Random number generation:
   RANDOM_GENERATOR = DEFAULT
   PCG_SEED         = not used


--------------------------------------------------------------------------------------------------------


 Static calculation
 charge density and potential will be updated during run
 spin polarized calculation
 RMM-DIIS sequential band-by-band and
  variant of blocked Davidson during initial phase
 perform sub-space diagonalisation
    before iterative eigenvector-optimisation
 modified Broyden-mixing scheme, WC =      100.0
 initial mixing is a Kerker type mixing with AMIX =  0.4000 and BMIX =      1.0000
 Hartree-type preconditioning will be used
 using additional bands           64
 real space projection scheme for non local part
 use partial core corrections
 calculate Harris-corrections to forces   (improved forces if not selfconsistent)
 use gradient corrections 
 use of overlap-Matrix (Vanderbilt PP)
 Gauss-broadening in eV      SIGMA  =   0.10


--------------------------------------------------------------------------------------------------------


  energy-cutoff  :      500.00
  volume of cell :     1311.99
      direct lattice vectors                 reciprocal lattice vectors
     5.024856456 -8.703306683  0.000000000     0.099505330 -0.057449429  0.000000000
     5.024856456  8.703306683  0.000000000     0.099505330  0.057449429 -0.000000000
     0.000000000  0.000000000 15.000000000    -0.000000000  0.000000000  0.066666667

  length of vectors
    10.049712912 10.049712912 15.000000000     0.114898858  0.114898858  0.066666667



 k-points in units of 2pi/SCALE and weight: k-points                                
   0.00000000 -0.00000000  0.00000000       0.111
   0.03316844 -0.01914981  0.00000000       0.667
   0.06633689  0.00000000  0.00000000       0.222

 k-points in reciprocal lattice and weights: k-points                                
   0.00000000  0.00000000  0.00000000       0.111
   0.33333333  0.00000000  0.00000000       0.667
   0.33333333  0.33333333  0.00000000       0.222

 position of ions in fractional coordinates (direct lattice) 
   0.08333333  0.16666667  0.12845442
   0.58333333  0.41666667  0.12845442
   0.58333333  0.91666667  0.12845442
   0.58333333  0.16666667  0.12845442
   0.83333333  0.91666667  0.12845442
   0.33333333  0.91666667  0.12845442
   0.33333333  0.66666667  0.12845442
   0.83333333  0.16666667  0.12845442
   0.33333333  0.41666667  0.12845442
   0.83333333  0.41666667  0.12845442
   0.08333333  0.91666667  0.12845442
   0.08333333  0.66666667  0.12845442
   0.83333333  0.66666667  0.12845442
   0.08333333  0.41666667  0.12845442
   0.33333333  0.16666667  0.12845442
   0.58333333  0.66666667  0.12845442
   0.91666667  0.08333333  0.12845442
   0.66666667  0.58333333  0.12845442
   0.66666667  0.83333333  0.12845442
   0.91666667  0.33333333  0.12845442
   0.91666667  0.58333333  0.12845442
   0.41666667  0.83333333  0.12845442
   0.66666667  0.08333333  0.12845442
   0.41666667  0.58333333  0.18178775
   0.41666667  0.33333333  0.12845442
   0.41666667  0.08333333  0.12845442
   0.16666667  0.83333333  0.12845442
   0.16666667  0.58333333  0.12845442
   0.16666667  0.33333333  0.12845442
   0.16666667  0.08333333  0.12845442
   0.66666667  0.33333333  0.12845442
   0.91666667  0.83333333  0.12845442

 position of ions in cartesian coordinates  (Angst):
   1.25621411  0.72527556  1.92681625
   5.02485646 -1.45055111  1.92681625
   7.53728468  2.90110223  1.92681625
   3.76864234 -3.62637778  1.92681625
   8.79349880  0.72527556  1.92681625
   6.28107057  5.07692890  1.92681625
   5.02485646  2.90110223  1.92681625
   5.02485646 -5.80220446  1.92681625
   3.76864234  0.72527556  1.92681625
   6.28107057 -3.62637778  1.92681625
   5.02485646  7.25275557  1.92681625
   3.76864234  5.07692890  1.92681625
   7.53728468 -1.45055111  1.92681625
   2.51242823  2.90110223  1.92681625
   2.51242823 -1.45055111  1.92681625
   6.28107057  0.72527556  1.92681625
   5.02485646 -7.25275557  1.92681625
   6.28107057 -0.72527556  1.92681625
   7.53728468  1.45055111  1.92681625
   6.28107057 -5.07692890  1.92681625
   7.53728468 -2.90110223  1.92681625
   6.28107057  3.62637778  1.92681625
   3.76864234 -5.07692890  1.92681625
   5.02485646  1.45055111  2.72681625
   3.76864234 -0.72527556  1.92681625
   2.51242823 -2.90110223  1.92681625
   5.02485646  5.80220446  1.92681625
   3.76864234  3.62637778  1.92681625
   2.51242823  1.45055111  1.92681625
   1.25621411 -0.72527556  1.92681625
   5.02485646 -2.90110223  1.92681625
   8.79349880 -0.72527556  1.92681625



--------------------------------------------------------------------------------------------------------


 k-point   1 :   0.0000 0.0000 0.0000  plane waves:   33319
 k-point   2 :   0.3333 0.0000 0.0000  plane waves:   33326
 k-point   3 :   0.3333 0.3333 0.0000  plane waves:   33300

 maximum and minimum number of plane-waves per node :      8351     8315

 maximum number of plane-waves:     33326
 maximum index in each direction: 
   IXMAX=   18   IYMAX=   18   IZMAX=   27
   IXMIN=  -18   IYMIN=  -18   IZMIN=  -27


 real space projection operators:
  total allocation   :       2975.44 KBytes
  max/ min on nodes  :        745.88        741.75


 parallel 3D FFT for wavefunctions:
    minimum data exchange during FFTs selected (reduces bandwidth)
 parallel 3D FFT for charge:
    minimum data exchange during FFTs selected (reduces bandwidth)


 total amount of memory used by VASP MPI-rank0    44649. kBytes
=======================================================================

   base      :      30000. kBytes
   nonlr-proj:       1860. kBytes
   fftplans  :       2696. kBytes
   grid      :       6813. kBytes
   one-center:         49. kBytes
   wavefun   :       3231. kBytes

     INWAV:  cpu time      0.0000: real time      0.0003
 Broyden mixing: mesh for mixing (old mesh)
   NGX = 37   NGY = 37   NGZ = 55
  (NGX  =112   NGY  =112   NGZ  =168)
  gives a total of  75295 points

 initial charge density was supplied:
 charge density of overlapping atoms calculated
 number of electron     128.0000000 magnetization      32.0000000
 keeping initial charge density in first step


--------------------------------------------------------------------------------------------------------


 Maximum index for non-local projection operator          430
 Maximum index for augmentation-charges           26 (set IRDMAX)


--------------------------------------------------------------------------------------------------------


 First call to EWALD:  gamma=   0.162
 Maximum number of real-space cells 3x 3x 2
 Maximum number of reciprocal cells 3x 3x 4

    FEWALD:  cpu time      0.0032: real time      0.0032


--------------------------------------- Ionic step        1  -------------------------------------------




--------------------------------------- Iteration      1(   1)  ---------------------------------------


    POTLOK:  cpu time      0.0471: real time      0.0478
    SETDIJ:  cpu time      0.0070: real time      0.0072
     EDDAV:  cpu time      1.1414: real time      1.1430
       DOS:  cpu time      0.0041: real time      0.0047
    --------------------------------------------
      LOOP:  cpu time      1.1996: real time      1.2028

 eigenvalue-minimisations  :  1536
 total energy-change (2. order) : 0.1044547E+04  (-0.4713960E+04)
 number of electron     128.0000000 magnetization      32.0000000
 augmentation part      128.0000000 magnetization      32.0000000

 Free energy of the ion-electron system (eV)
  ---------------------------------------------------
  alpha Z        PSCENC =        69.43433294
  Ewald energy   TEWEN  =     12359.09823215
  -Hartree energ DENC   =    -16482.68166936
  -exchange      EXHF   =         0.00000000
  -V(xc)+E(xc)   XCENC  =       434.47361765
  PAW double counting   =      3970.93085301    -3975.79025740
  entropy T*S    EENTRO =        -0.07754261
  eigenvalues    EBANDS =      -702.10383526
  atomic energy  EATOM  =      5371.26345991
  Solvation  Ediel_sol  =         0.00000000
  ---------------------------------------------------
  free energy    TOTEN  =      1044.54719100 eV

  energy without entropy =     1044.62473361  energy(sigma->0) =     1044.58596231


--------------------------------------------------------------------------------------------------------




--------------------------------------- Iteration      1(   2)  ---------------------------------------


     EDDAV:  cpu time      1.8327: real time      1.8437
       DOS:  cpu time      0.0004: real time      0.0007
    --------------------------------------------
      LOOP:  cpu time      1.8331: real time      1.8444

 eigenvalue-minimisations  :  2496
 total energy-change (2. order) :-0.1183704E+04  (-0.1109161E+04)
 number of electron     128.0000000 magnetization      32.0000000
 augmentation part      128.0000000 magnetization      32.0000000

 Free energy of the ion-electron system (eV)
  ---------------------------------------------------
  alpha Z        PSCENC =        69.43433294
  Ewald energy   TEWEN  =     12359.09823215
  -Hartree energ DENC   =    -16482.68166936
  -exchange      EXHF   =         0.00000000
  -V(xc)+E(xc)   XCENC  =       434.47361765
  PAW double counting   =      3970.93085301    -3975.79025740
  entropy T*S    EENTRO =        -0.00000000
  eigenvalues    EBANDS =     -1885.88499806
  atomic energy  EATOM  =      5371.26345991
  Solvation  Ediel_sol  =         0.00000000
  ---------------------------------------------------
  free energy    TOTEN  =      -139.15642918 eV

  energy without entropy =     -139.15642918  energy(sigma->0) =     -139.15642918


--------------------------------------------------------------------------------------------------------




--------------------------------------- Iteration      1(   3)  ---------------------------------------


     EDDAV:  cpu time      1.5305: real time      1.5314
       DOS:  cpu time      0.0003: real time      0.0006
    --------------------------------------------
      LOOP:  cpu time      1.5307: real time      1.5320

 eigenvalue-minimisations  :  1952
 total energy-change (2. order) :-0.1522965E+03  (-0.1507878E+03)
 number of electron     128.0000000 magnetization      32.0000000
 augmentation part      128.0000000 magnetization      32.0000000

 Free energy of the ion-electron system (eV)
  ---------------------------------------------------
  alpha Z        PSCENC =        69.43433294
  Ewald energy   TEWEN  =     12359.09823215
  -Hartree energ DENC   =    -16482.68166936
  -exchange      EXHF   =         0.00000000
  -V(xc)+E(xc)   XCENC  =       434.47361765
  PAW double counting   =      3970.93085301    -3975.79025740
  entropy T*S    EENTRO =        -0.00000000
  eigenvalues    EBANDS =     -2038.18151784
  atomic energy  EATOM  =      5371.26345991
  Solvation  Ediel_sol  =         0.00000000
  ---------------------------------------------------
  free energy    TOTEN  =      -291.45294896 eV

  energy without entropy =     -291.45294896  energy(sigma->0) =     -291.45294896


--------------------------------------------------------------------------------------------------------




--------------------------------------- Iteration      1(   4)  ---------------------------------------


     EDDAV:  cpu time      1.8666: real time      1.8676
       DOS:  cpu time      0.0004: real time      0.0008
    --------------------------------------------
      LOOP:  cpu time      1.8671: real time      1.8684

 eigenvalue-minimisations  :  2048
 total energy-change (2. order) :-0.4045696E+01  (-0.4033873E+01)
 number of electron     128.0000000 magnetization      32.0000000
 augmentation part      128.0000000 magnetization      32.0000000

 Free energy of the ion-electron system (eV)
  ---------------------------------------------------
  alpha Z        PSCENC =        69.43433294
  Ewald energy   TEWEN  =     12359.09823215
  -Hartree energ DENC   =    -16482.68166936
  -exchange      EXHF   =         0.00000000
  -V(xc)+E(xc)   XCENC  =       434.47361765
  PAW double counting   =      3970.93085301    -3975.79025740
  entropy T*S    EENTRO =        -0.00000000
  eigenvalues    EBANDS =     -2042.22721405
  atomic energy  EATOM  =      5371.26345991
  Solvation  Ediel_sol  =         0.00000000
  ---------------------------------------------------
  free energy    TOTEN  =      -295.49864517 eV

  energy without entropy =     -295.49864517  energy(sigma->0) =     -295.49864517


--------------------------------------------------------------------------------------------------------




--------------------------------------- Iteration      1(   5)  ---------------------------------------


     EDDAV:  cpu time      1.9074: real time      1.9105
       DOS:  cpu time      0.0003: real time      0.0008
    CHARGE:  cpu time      0.5246: real time      0.5250
    MIXING:  cpu time      0.0092: real time      0.0099
    --------------------------------------------
      LOOP:  cpu time      2.4414: real time      2.4462

 eigenvalue-minimisations  :  2176
 total energy-change (2. order) :-0.8468168E-01  (-0.8464730E-01)
 number of electron     127.9999993 magnetization      24.3574294
 augmentation part        4.9314342 magnetization      24.4002142

 Broyden mixing:
  rms(total) = 0.41844E+01    rms(broyden)= 0.41836E+01
  rms(prec ) = 0.45442E+01
  weight for this iteration     100.00

 Free energy of the ion-electron system (eV)
  ---------------------------------------------------
  alpha Z        PSCENC =        69.43433294
  Ewald energy   TEWEN  =     12359.09823215
  -Hartree energ DENC   =    -16482.68166936
  -exchange      EXHF   =         0.00000000
  -V(xc)+E(xc)   XCENC  =       434.47361765
  PAW double counting   =      3970.93085301    -3975.79025740
  entropy T*S    EENTRO =        -0.00000000
  eigenvalues    EBANDS =     -2042.31189573
  atomic energy  EATOM  =      5371.26345991
  Solvation  Ediel_sol  =         0.00000000
  ---------------------------------------------------
  free energy    TOTEN  =      -295.58332685 eV

  energy without entropy =     -295.58332685  energy(sigma->0) =     -295.58332685


--------------------------------------------------------------------------------------------------------




--------------------------------------- Iteration      1(   6)  ---------------------------------------


    POTLOK:  cpu time      0.0539: real time      0.0547
    SETDIJ:  cpu time      0.0041: real time      0.0041
    EDDIAG:  cpu time      0.2271: real time      0.2278
  RMM-DIIS:  cpu time      0.4816: real time      0.4818
    ORTHCH:  cpu time      0.0471: real time      0.0471
       DOS:  cpu time      0.0008: real time      0.0017
    CHARGE:  cpu time      0.5835: real time      0.5836
    MIXING:  cpu time      0.0129: real time      0.0133
    --------------------------------------------
      LOOP:  cpu time      1.4112: real time      1.4141

 eigenvalue-minimisations  :  1727
 total energy-change (2. order) : 0.1006640E+03  (-0.1132654E+02)
 number of electron     127.9999992 magnetization      16.5579218
 augmentation part        4.2779297 magnetization      16.0297148

 Broyden mixing:
  rms(total) = 0.20098E+01    rms(broyden)= 0.20095E+01
  rms(prec ) = 0.21869E+01
  weight for this iteration     100.00

 eigenvalues of (default mixing * dielectric matrix)
  average eigenvalue GAMMA=   1.1268
  1.1268

 Free energy of the ion-electron system (eV)
  ---------------------------------------------------
  alpha Z        PSCENC =        69.43433294
  Ewald energy   TEWEN  =     12359.09823215
  -Hartree energ DENC   =    -16755.52877101
  -exchange      EXHF   =         0.00000000
  -V(xc)+E(xc)   XCENC  =       505.38964335
  PAW double counting   =      7110.98475962    -7119.78284787
  entropy T*S    EENTRO =        -0.00000000
  eigenvalues    EBANDS =     -1735.77812429
  atomic energy  EATOM  =      5371.26345991
  Solvation  Ediel_sol  =         0.00000000
  ---------------------------------------------------
  free energy    TOTEN  =      -194.91931520 eV

  energy without entropy =     -194.91931520  energy(sigma->0) =     -194.91931520


--------------------------------------------------------------------------------------------------------




--------------------------------------- Iteration      1(   7)  ---------------------------------------


    POTLOK:  cpu time      0.0543: real time      0.0638
    SETDIJ:  cpu time      0.0042: real time      0.0042
    EDDIAG:  cpu time      0.2934: real time      0.2935
  RMM-DIIS:  cpu time      0.5258: real time      0.5258
    ORTHCH:  cpu time      0.0497: real time      0.0497
       DOS:  cpu time      0.0025: real time      0.0035
    CHARGE:  cpu time      0.6034: real time      0.6036
    MIXING:  cpu time      0.0115: real time      0.0115
    --------------------------------------------
      LOOP:  cpu time      1.5447: real time      1.5555

 eigenvalue-minimisations  :  1902
 total energy-change (2. order) :-0.3412758E+02  (-0.4122039E+01)
 number of electron     127.9999987 magnetization      12.9498672
 augmentation part        3.7443532 magnetization      12.3627015

 Broyden mixing:
  rms(total) = 0.13026E+01    rms(broyden)= 0.13022E+01
  rms(prec ) = 0.13747E+01
  weight for this iteration     100.00

 eigenvalues of (default mixing * dielectric matrix)
  average eigenvalue GAMMA=   1.0164
  1.1971  0.8357

 Free energy of the ion-electron system (eV)
  ---------------------------------------------------
  alpha Z        PSCENC =        69.43433294
  Ewald energy   TEWEN  =     12359.09823215
  -Hartree energ DENC   =    -16960.44047819
  -exchange      EXHF   =         0.00000000
  -V(xc)+E(xc)   XCENC  =       486.49294346
  PAW double counting   =     10639.10475564   -10649.99317625
  entropy T*S    EENTRO =        -0.00000000
  eigenvalues    EBANDS =     -1544.00696572
  atomic energy  EATOM  =      5371.26345991
  Solvation  Ediel_sol  =         0.00000000
  ---------------------------------------------------
  free energy    TOTEN  =      -229.04689608 eV

  energy without entropy =     -229.04689608  energy(sigma->0) =     -229.04689608


--------------------------------------------------------------------------------------------------------




--------------------------------------- Iteration      1(   8)  ---------------------------------------


    POTLOK:  cpu time      0.0531: real time      0.0653
    SETDIJ:  cpu time      0.0063: real time      0.0063
    EDDIAG:  cpu time      0.2978: real time      0.2978
  RMM-DIIS:  cpu time      0.5319: real time      0.5320
    ORTHCH:  cpu time      0.0474: real time      0.0474
       DOS:  cpu time      0.0003: real time      0.0013
    CHARGE:  cpu time      0.5181: real time      0.5182
    MIXING:  cpu time      0.0036: real time      0.0036
    --------------------------------------------
      LOOP:  cpu time      1.4585: real time      1.4719

 eigenvalue-minimisations  :  1957
 total energy-change (2. order) :-0.7849866E+01  (-0.5921619E+00)
 number of electron     127.9999988 magnetization       5.5399514
 augmentation part        3.7532304 magnetization       5.1128796

 Broyden mixing:
  rms(total) = 0.89597E+00    rms(broyden)= 0.89594E+00
  rms(prec ) = 0.94003E+00
  weight for this iteration     100.00

 eigenvalues of (default mixing * dielectric matrix)
  average eigenvalue GAMMA=   1.3277
  1.6282  1.6282  0.7266

 Free energy of the ion-electron system (eV)
  ---------------------------------------------------
  alpha Z        PSCENC =        69.43433294
  Ewald energy   TEWEN  =     12359.09823215
  -Hartree energ DENC   =    -16986.94682201
  -exchange      EXHF   =         0.00000000
  -V(xc)+E(xc)   XCENC  =       480.12387182
  PAW double counting   =     11971.84513091   -11983.18487975
  entropy T*S    EENTRO =        -0.00000000
  eigenvalues    EBANDS =     -1518.53008785
  atomic energy  EATOM  =      5371.26345991
  Solvation  Ediel_sol  =         0.00000000
  ---------------------------------------------------
  free energy    TOTEN  =      -236.89676190 eV

  energy without entropy =     -236.89676190  energy(sigma->0) =     -236.89676190


--------------------------------------------------------------------------------------------------------




--------------------------------------- Iteration      1(   9)  ---------------------------------------


    POTLOK:  cpu time      0.0453: real time      0.0547
    SETDIJ:  cpu time      0.0041: real time      0.0041
    EDDIAG:  cpu time      0.2233: real time      0.2233
  RMM-DIIS:  cpu time      0.5931: real time      0.5934
    ORTHCH:  cpu time      0.0689: real time      0.0689
       DOS:  cpu time      0.0004: real time      0.0014
    CHARGE:  cpu time      0.5945: real time      0.5947
    MIXING:  cpu time      0.0088: real time      0.0088
    --------------------------------------------
      LOOP:  cpu time      1.5383: real time      1.5492

 eigenvalue-minimisations  :  2161
 total energy-change (2. order) :-0.2654799E+02  (-0.2167537E+01)
 number of electron     127.9999985 magnetization       3.7745761
 augmentation part        3.8376954 magnetization       3.5521057

 Broyden mixing:
  rms(total) = 0.44107E+00    rms(broyden)= 0.44091E+00
  rms(prec ) = 0.47676E+00
  weight for this iteration     100.00

 eigenvalues of (default mixing * dielectric matrix)
  average eigenvalue GAMMA=   1.3628
  2.6821  1.3478  0.8018  0.6195

 Free energy of the ion-electron system (eV)
  ---------------------------------------------------
  alpha Z        PSCENC =        69.43433294
  Ewald energy   TEWEN  =     12359.09823215
  -Hartree energ DENC   =    -17048.98063675
  -exchange      EXHF   =         0.00000000
  -V(xc)+E(xc)   XCENC  =       461.49913720
  PAW double counting   =     14536.88404577   -14548.45171042
  entropy T*S    EENTRO =        -0.00000000
  eigenvalues    EBANDS =     -1464.19161661
  atomic energy  EATOM  =      5371.26345991
  Solvation  Ediel_sol  =         0.00000000
  ---------------------------------------------------
  free energy    TOTEN  =      -263.44475583 eV

  energy without entropy =     -263.44475583  energy(sigma->0) =     -263.44475583


--------------------------------------------------------------------------------------------------------




--------------------------------------- Iteration      1(  10)  ---------------------------------------


    POTLOK:  cpu time      0.0575: real time      0.0676
    SETDIJ:  cpu time      0.0061: real time      0.0061
    EDDIAG:  cpu time      0.2839: real time      0.2839
  RMM-DIIS:  cpu time      0.5801: real time      0.5803
    ORTHCH:  cpu time      0.0520: real time      0.0520
       DOS:  cpu time      0.0005: real time      0.0014
    CHARGE:  cpu time      0.5859: real time      0.5859
    MIXING:  cpu time      0.0093: real time      0.0093
    --------------------------------------------
      LOOP:  cpu time      1.5752: real time      1.5865

 eigenvalue-minimisations  :  2114
 total energy-change (2. order) :-0.5959735E+01  (-0.4567866E+00)
 number of electron     127.9999983 magnetization       3.0990345
 augmentation part        3.7581046 magnetization       2.9317629

 Broyden mixing:
  rms(total) = 0.26849E+00    rms(broyden)= 0.26836E+00
  rms(prec ) = 0.29477E+00
  weight for this iteration     100.00

 eigenvalues of (default mixing * dielectric matrix)
  average eigenvalue GAMMA=   1.2116
  2.5836  1.4035  0.7095  0.7095  0.6518

 Free energy of the ion-electron system (eV)
  ---------------------------------------------------
  alpha Z        PSCENC =        69.43433294
  Ewald energy   TEWEN  =     12359.09823215
  -Hartree energ DENC   =    -17079.07365000
  -exchange      EXHF   =         0.00000000
  -V(xc)+E(xc)   XCENC  =       458.80812702
  PAW double counting   =     14957.58720302   -14969.39114416
  entropy T*S    EENTRO =        -0.00000000
  eigenvalues    EBANDS =     -1437.13105215
  atomic energy  EATOM  =      5371.26345991
  Solvation  Ediel_sol  =         0.00000000
  ---------------------------------------------------
  free energy    TOTEN  =      -269.40449129 eV

  energy without entropy =     -269.40449129  energy(sigma->0) =     -269.40449129


--------------------------------------------------------------------------------------------------------




--------------------------------------- Iteration      1(  11)  ---------------------------------------


    POTLOK:  cpu time      0.0623: real time      0.0627
    SETDIJ:  cpu time      0.0046: real time      0.0046
    EDDIAG:  cpu time      0.3148: real time      0.3148
  RMM-DIIS:  cpu time      0.5780: real time      0.5782
    ORTHCH:  cpu time      0.0501: real time      0.0501
       DOS:  cpu time      0.0003: real time      0.0012
    CHARGE:  cpu time      0.5462: real time      0.5463
    MIXING:  cpu time      0.0041: real time      0.0041
    --------------------------------------------
      LOOP:  cpu time      1.5604: real time      1.5620

 eigenvalue-minimisations  :  2064
 total energy-change (2. order) :-0.3124953E+01  (-0.1779394E+00)
 number of electron     127.9999982 magnetization       1.2033706
 augmentation part        3.6974347 magnetization       1.0882084

 Broyden mixing:
  rms(total) = 0.17941E+00    rms(broyden)= 0.17928E+00
  rms(prec ) = 0.19721E+00
  weight for this iteration     100.00

 eigenvalues of (default mixing * dielectric matrix)
  average eigenvalue GAMMA=   1.4448
  2.6048  2.6048  1.0277  1.0277  0.7906  0.6132

 Free energy of the ion-electron system (eV)
  ---------------------------------------------------
  alpha Z        PSCENC =        69.43433294
  Ewald energy   TEWEN  =     12359.09823215
  -Hartree energ DENC   =    -17084.07209357
  -exchange      EXHF   =         0.00000000
  -V(xc)+E(xc)   XCENC  =       456.91687326
  PAW double counting   =     14724.29875018   -14736.01402851
  entropy T*S    EENTRO =        -0.00000000
  eigenvalues    EBANDS =     -1433.45497114
  atomic energy  EATOM  =      5371.26345991
  Solvation  Ediel_sol  =         0.00000000
  ---------------------------------------------------
  free energy    TOTEN  =      -272.52944478 eV

  energy without entropy =     -272.52944478  energy(sigma->0) =     -272.52944478


--------------------------------------------------------------------------------------------------------




--------------------------------------- Iteration      1(  12)  ---------------------------------------


    POTLOK:  cpu time      0.0440: real time      0.0540
    SETDIJ:  cpu time      0.0042: real time      0.0042
    EDDIAG:  cpu time      0.2250: real time      0.2254
  RMM-DIIS:  cpu time      0.6214: real time      0.6214
    ORTHCH:  cpu time      0.0392: real time      0.0392
       DOS:  cpu time      0.0003: real time      0.0012
    CHARGE:  cpu time      0.5741: real time      0.5742
    MIXING:  cpu time      0.0127: real time      0.0127
    --------------------------------------------
      LOOP:  cpu time      1.5208: real time      1.5323

 eigenvalue-minimisations  :  2265
 total energy-change (2. order) :-0.4825742E+01  (-0.2986295E+00)
 number of electron     127.9999981 magnetization       0.5940682
 augmentation part        3.6759440 magnetization       0.5536327

 Broyden mixing:
  rms(total) = 0.91979E-01    rms(broyden)= 0.91729E-01
  rms(prec ) = 0.10294E+00
  weight for this iteration     100.00

 eigenvalues of (default mixing * dielectric matrix)
  average eigenvalue GAMMA=   1.3713
  3.0671  2.0892  1.2509  0.9226  0.9226  0.7323  0.6142

 Free energy of the ion-electron system (eV)
  ---------------------------------------------------
  alpha Z        PSCENC =        69.43433294
  Ewald energy   TEWEN  =     12359.09823215
  -Hartree energ DENC   =    -17083.49659506
  -exchange      EXHF   =         0.00000000
  -V(xc)+E(xc)   XCENC  =       452.78374471
  PAW double counting   =     14464.76069857   -14476.18916121
  entropy T*S    EENTRO =        -0.00000000
  eigenvalues    EBANDS =     -1435.00989898
  atomic energy  EATOM  =      5371.26345991
  Solvation  Ediel_sol  =         0.00000000
  ---------------------------------------------------
  free energy    TOTEN  =      -277.35518698 eV

  energy without entropy =     -277.35518698  energy(sigma->0) =     -277.35518698


--------------------------------------------------------------------------------------------------------




--------------------------------------- Iteration      1(  13)  ---------------------------------------


    POTLOK:  cpu time      0.0552: real time      0.0659
    SETDIJ:  cpu time      0.0043: real time      0.0043
    EDDIAG:  cpu time      0.2820: real time      0.2820
  RMM-DIIS:  cpu time      0.5930: real time      0.5932
    ORTHCH:  cpu time      0.0521: real time      0.0521
       DOS:  cpu time      0.0004: real time      0.0012
    CHARGE:  cpu time      0.5936: real time      0.5937
    MIXING:  cpu time      0.0090: real time      0.0090
    --------------------------------------------
      LOOP:  cpu time      1.5896: real time      1.6014

 eigenvalue-minimisations  :  2153
 total energy-change (2. order) :-0.5625951E+00  (-0.3061631E-01)
 number of electron     127.9999981 magnetization       0.2045275
 augmentation part        3.6786552 magnetization       0.1735393

 Broyden mixing:
  rms(total) = 0.55749E-01    rms(broyden)= 0.55715E-01
  rms(prec ) = 0.65804E-01
  weight for this iteration     100.00

 eigenvalues of (default mixing * dielectric matrix)
  average eigenvalue GAMMA=   1.4340
  3.6888  2.1096  1.3052  1.3052  0.8866  0.8866  0.6055  0.6846

 Free energy of the ion-electron system (eV)
  ---------------------------------------------------
  alpha Z        PSCENC =        69.43433294
  Ewald energy   TEWEN  =     12359.09823215
  -Hartree energ DENC   =    -17086.17124113
  -exchange      EXHF   =         0.00000000
  -V(xc)+E(xc)   XCENC  =       452.32378543
  PAW double counting   =     14546.69971582   -14558.14698485
  entropy T*S    EENTRO =        -0.00000000
  eigenvalues    EBANDS =     -1432.41908232
  atomic energy  EATOM  =      5371.26345991
  Solvation  Ediel_sol  =         0.00000000
  ---------------------------------------------------
  free energy    TOTEN  =      -277.91778206 eV

  energy without entropy =     -277.91778206  energy(sigma->0) =     -277.91778206


--------------------------------------------------------------------------------------------------------




--------------------------------------- Iteration      1(  14)  ---------------------------------------


    POTLOK:  cpu time      0.0545: real time      0.0616
    SETDIJ:  cpu time      0.0058: real time      0.0058
    EDDIAG:  cpu time      0.3037: real time      0.3038
  RMM-DIIS:  cpu time      0.5941: real time      0.5942
    ORTHCH:  cpu time      0.0573: real time      0.0573
       DOS:  cpu time      0.0006: real time      0.0014
    CHARGE:  cpu time      0.6042: real time      0.6043
    MIXING:  cpu time      0.0107: real time      0.0107
    --------------------------------------------
      LOOP:  cpu time      1.6309: real time      1.6393

 eigenvalue-minimisations  :  2218
 total energy-change (2. order) :-0.4114557E+00  (-0.1769680E-01)
 number of electron     127.9999981 magnetization       0.0571520
 augmentation part        3.6932122 magnetization       0.0426210

 Broyden mixing:
  rms(total) = 0.40860E-01    rms(broyden)= 0.40832E-01
  rms(prec ) = 0.48944E-01
  weight for this iteration     100.00

 eigenvalues of (default mixing * dielectric matrix)
  average eigenvalue GAMMA=   1.4529
  3.8252  2.2474  1.8324  1.1989  0.9177  0.9177  0.8315  0.6106  0.6942

 Free energy of the ion-electron system (eV)
  ---------------------------------------------------
  alpha Z        PSCENC =        69.43433294
  Ewald energy   TEWEN  =     12359.09823215
  -Hartree energ DENC   =    -17084.26510387
  -exchange      EXHF   =         0.00000000
  -V(xc)+E(xc)   XCENC  =       451.67935574
  PAW double counting   =     14490.80394704   -14502.21286701
  entropy T*S    EENTRO =        -0.00000000
  eigenvalues    EBANDS =     -1434.13059464
  atomic energy  EATOM  =      5371.26345991
  Solvation  Ediel_sol  =         0.00000000
  ---------------------------------------------------
  free energy    TOTEN  =      -278.32923775 eV

  energy without entropy =     -278.32923775  energy(sigma->0) =     -278.32923775


--------------------------------------------------------------------------------------------------------




--------------------------------------- Iteration      1(  15)  ---------------------------------------


    POTLOK:  cpu time      0.0537: real time      0.0541
    SETDIJ:  cpu time      0.0041: real time      0.0041
    EDDIAG:  cpu time      0.2252: real time      0.2253
  RMM-DIIS:  cpu time      0.5963: real time      0.5966
    ORTHCH:  cpu time      0.0394: real time      0.0394
       DOS:  cpu time      0.0003: real time      0.0013
    CHARGE:  cpu time      0.5173: real time      0.5174
    MIXING:  cpu time      0.0318: real time      0.0318
    --------------------------------------------
      LOOP:  cpu time      1.4683: real time      1.4699

 eigenvalue-minimisations  :  2215
 total energy-change (2. order) :-0.5709478E-01  (-0.4664735E-02)
 number of electron     127.9999981 magnetization      -0.0014355
 augmentation part        3.6890968 magnetization      -0.0061803

 Broyden mixing:
  rms(total) = 0.15207E-01    rms(broyden)= 0.15180E-01
  rms(prec ) = 0.21917E-01
  weight for this iteration     100.00

 eigenvalues of (default mixing * dielectric matrix)
  average eigenvalue GAMMA=   1.5096
  3.9569  2.8052  2.0593  1.1697  1.1697  0.9567  0.9567  0.6068  0.7075  0.7075

 Free energy of the ion-electron system (eV)
  ---------------------------------------------------
  alpha Z        PSCENC =        69.43433294
  Ewald energy   TEWEN  =     12359.09823215
  -Hartree energ DENC   =    -17085.21203301
  -exchange      EXHF   =         0.00000000
  -V(xc)+E(xc)   XCENC  =       451.56976619
  PAW double counting   =     14405.35020826   -14416.76625528
  entropy T*S    EENTRO =        -0.00000000
  eigenvalues    EBANDS =     -1433.12404368
  atomic energy  EATOM  =      5371.26345991
  Solvation  Ediel_sol  =         0.00000000
  ---------------------------------------------------
  free energy    TOTEN  =      -278.38633253 eV

  energy without entropy =     -278.38633253  energy(sigma->0) =     -278.38633253


--------------------------------------------------------------------------------------------------------




--------------------------------------- Iteration      1(  16)  ---------------------------------------


    POTLOK:  cpu time      0.0553: real time      0.0659
    SETDIJ:  cpu time      0.0048: real time      0.0049
    EDDIAG:  cpu time      0.2885: real time      0.2886
  RMM-DIIS:  cpu time      0.5995: real time      0.5996
    ORTHCH:  cpu time      0.0504: real time      0.0504
       DOS:  cpu time      0.0010: real time      0.0018
    CHARGE:  cpu time      0.6765: real time      0.6766
    MIXING:  cpu time      0.0107: real time      0.0107
    --------------------------------------------
      LOOP:  cpu time      1.6869: real time      1.6986

 eigenvalue-minimisations  :  2208
 total energy-change (2. order) :-0.2610092E-01  (-0.1539870E-02)
 number of electron     127.9999981 magnetization      -0.0158904
 augmentation part        3.6839322 magnetization      -0.0172197

 Broyden mixing:
  rms(total) = 0.11192E-01    rms(broyden)= 0.11184E-01
  rms(prec ) = 0.16047E-01
  weight for this iteration     100.00

 eigenvalues of (default mixing * dielectric matrix)
  average eigenvalue GAMMA=   1.4797
  4.0066  2.7345  2.3913  1.2312  1.2312  0.9566  0.9566  0.7563  0.7408  0.6117
  0.6602

 Free energy of the ion-electron system (eV)
  ---------------------------------------------------
  alpha Z        PSCENC =        69.43433294
  Ewald energy   TEWEN  =     12359.09823215
  -Hartree energ DENC   =    -17087.28292991
  -exchange      EXHF   =         0.00000000
  -V(xc)+E(xc)   XCENC  =       451.57868234
  PAW double counting   =     14385.34422773   -14396.77329755
  entropy T*S    EENTRO =        -0.00000000
  eigenvalues    EBANDS =     -1431.07514105
  atomic energy  EATOM  =      5371.26345991
  Solvation  Ediel_sol  =         0.00000000
  ---------------------------------------------------
  free energy    TOTEN  =      -278.41243345 eV

  energy without entropy =     -278.41243345  energy(sigma->0) =     -278.41243345


--------------------------------------------------------------------------------------------------------




--------------------------------------- Iteration      1(  17)  ---------------------------------------


    POTLOK:  cpu time      0.0606: real time      0.0694
    SETDIJ:  cpu time      0.0042: real time      0.0042
    EDDIAG:  cpu time      0.3087: real time      0.3087
  RMM-DIIS:  cpu time      0.5979: real time      0.5979
    ORTHCH:  cpu time      0.0504: real time      0.0504
       DOS:  cpu time      0.0005: real time      0.0014
    CHARGE:  cpu time      0.5946: real time      0.5955
    MIXING:  cpu time      0.0201: real time      0.0201
    --------------------------------------------
      LOOP:  cpu time      1.6370: real time      1.6476

 eigenvalue-minimisations  :  2243
 total energy-change (2. order) :-0.8546183E-02  (-0.5012935E-03)
 number of electron     127.9999981 magnetization      -0.0237135
 augmentation part        3.6833761 magnetization      -0.0239955

 Broyden mixing:
  rms(total) = 0.91484E-02    rms(broyden)= 0.91467E-02
  rms(prec ) = 0.13006E-01
  weight for this iteration     100.00

 eigenvalues of (default mixing * dielectric matrix)
  average eigenvalue GAMMA=   1.4650
  4.0809  2.6123  2.6123  1.6264  1.0167  1.0167  0.9703  0.9703  0.7561  0.6131
  0.6523  0.6523

 Free energy of the ion-electron system (eV)
  ---------------------------------------------------
  alpha Z        PSCENC =        69.43433294
  Ewald energy   TEWEN  =     12359.09823215
  -Hartree energ DENC   =    -17088.89743617
  -exchange      EXHF   =         0.00000000
  -V(xc)+E(xc)   XCENC  =       451.57806015
  PAW double counting   =     14399.36169377   -14410.79600010
  entropy T*S    EENTRO =        -0.00000000
  eigenvalues    EBANDS =     -1429.46332227
  atomic energy  EATOM  =      5371.26345991
  Solvation  Ediel_sol  =         0.00000000
  ---------------------------------------------------
  free energy    TOTEN  =      -278.42097963 eV

  energy without entropy =     -278.42097963  energy(sigma->0) =     -278.42097963


--------------------------------------------------------------------------------------------------------




--------------------------------------- Iteration      1(  18)  ---------------------------------------


    POTLOK:  cpu time      0.0434: real time      0.0545
    SETDIJ:  cpu time      0.0041: real time      0.0041
    EDDIAG:  cpu time      0.2280: real time      0.2280
  RMM-DIIS:  cpu time      0.5998: real time      0.6001
    ORTHCH:  cpu time      0.0391: real time      0.0393
       DOS:  cpu time      0.0004: real time      0.0013
    CHARGE:  cpu time      0.5188: real time      0.5188
    MIXING:  cpu time      0.0049: real time      0.0049
    --------------------------------------------
      LOOP:  cpu time      1.4385: real time      1.4510

 eigenvalue-minimisations  :  2225
 total energy-change (2. order) : 0.7331643E-04  (-0.2038337E-03)
 number of electron     127.9999981 magnetization      -0.0185564
 augmentation part        3.6856873 magnetization      -0.0182458

 Broyden mixing:
  rms(total) = 0.31455E-02    rms(broyden)= 0.31436E-02
  rms(prec ) = 0.66785E-02
  weight for this iteration     100.00

 eigenvalues of (default mixing * dielectric matrix)
  average eigenvalue GAMMA=   1.5110
  4.1081  2.8062  2.8062  2.0643  1.1053  1.1053  0.9817  0.9817  0.9679  0.7910
  0.6804  0.6122  0.6321

 Free energy of the ion-electron system (eV)
  ---------------------------------------------------
  alpha Z        PSCENC =        69.43433294
  Ewald energy   TEWEN  =     12359.09823215
  -Hartree energ DENC   =    -17090.14617810
  -exchange      EXHF   =         0.00000000
  -V(xc)+E(xc)   XCENC  =       451.54435904
  PAW double counting   =     14406.51933878   -14417.94967759
  entropy T*S    EENTRO =        -0.00000000
  eigenvalues    EBANDS =     -1428.18477344
  atomic energy  EATOM  =      5371.26345991
  Solvation  Ediel_sol  =         0.00000000
  ---------------------------------------------------
  free energy    TOTEN  =      -278.42090632 eV

  energy without entropy =     -278.42090632  energy(sigma->0) =     -278.42090632


--------------------------------------------------------------------------------------------------------




--------------------------------------- Iteration      1(  19)  ---------------------------------------


    POTLOK:  cpu time      0.0336: real time      0.0542
    SETDIJ:  cpu time      0.0041: real time      0.0041
    EDDIAG:  cpu time      0.3212: real time      0.3213
  RMM-DIIS:  cpu time      0.5956: real time      0.5959
    ORTHCH:  cpu time      0.0420: real time      0.0420
       DOS:  cpu time      0.0004: real time      0.0013
    CHARGE:  cpu time      0.5191: real time      0.5192
    MIXING:  cpu time      0.0054: real time      0.0054
    --------------------------------------------
      LOOP:  cpu time      1.5215: real time      1.5433

 eigenvalue-minimisations  :  2236
 total energy-change (2. order) :-0.8929843E-02  (-0.1634123E-03)
 number of electron     127.9999981 magnetization      -0.0137149
 augmentation part        3.6872866 magnetization      -0.0141342

 Broyden mixing:
  rms(total) = 0.62291E-02    rms(broyden)= 0.62286E-02
  rms(prec ) = 0.74595E-02
  weight for this iteration     100.00

 eigenvalues of (default mixing * dielectric matrix)
  average eigenvalue GAMMA=   1.5505
  4.2270  3.5599  2.4426  2.4426  1.4650  1.0823  1.0823  0.9585  0.9585  0.7776
  0.7776  0.6955  0.6118  0.6260

 Free energy of the ion-electron system (eV)
  ---------------------------------------------------
  alpha Z        PSCENC =        69.43433294
  Ewald energy   TEWEN  =     12359.09823215
  -Hartree energ DENC   =    -17092.20296427
  -exchange      EXHF   =         0.00000000
  -V(xc)+E(xc)   XCENC  =       451.52259538
  PAW double counting   =     14412.94423936   -14424.37116138
  entropy T*S    EENTRO =        -0.00000000
  eigenvalues    EBANDS =     -1426.11857025
  atomic energy  EATOM  =      5371.26345991
  Solvation  Ediel_sol  =         0.00000000
  ---------------------------------------------------
  free energy    TOTEN  =      -278.42983616 eV

  energy without entropy =     -278.42983616  energy(sigma->0) =     -278.42983616


--------------------------------------------------------------------------------------------------------




--------------------------------------- Iteration      1(  20)  ---------------------------------------


    POTLOK:  cpu time      0.0435: real time      0.0546
    SETDIJ:  cpu time      0.0041: real time      0.0041
    EDDIAG:  cpu time      0.2278: real time      0.2278
  RMM-DIIS:  cpu time      0.5964: real time      0.5966
    ORTHCH:  cpu time      0.0393: real time      0.0393
       DOS:  cpu time      0.0003: real time      0.0013
    CHARGE:  cpu time      0.5176: real time      0.5176
    MIXING:  cpu time      0.0050: real time      0.0050
    --------------------------------------------
      LOOP:  cpu time      1.4341: real time      1.4464

 eigenvalue-minimisations  :  2219
 total energy-change (2. order) :-0.2666234E-02  (-0.4092949E-04)
 number of electron     127.9999981 magnetization      -0.0066073
 augmentation part        3.6864996 magnetization      -0.0069260

 Broyden mixing:
  rms(total) = 0.30718E-02    rms(broyden)= 0.30716E-02
  rms(prec ) = 0.37657E-02
  weight for this iteration     100.00

 eigenvalues of (default mixing * dielectric matrix)
  average eigenvalue GAMMA=   1.5913
  4.6638  3.9551  2.4826  2.4826  1.7150  1.1137  1.1137  1.0830  0.9009  0.9009
  0.7982  0.7500  0.6124  0.6486  0.6486

 Free energy of the ion-electron system (eV)
  ---------------------------------------------------
  alpha Z        PSCENC =        69.43433294
  Ewald energy   TEWEN  =     12359.09823215
  -Hartree energ DENC   =    -17093.38937740
  -exchange      EXHF   =         0.00000000
  -V(xc)+E(xc)   XCENC  =       451.53519893
  PAW double counting   =     14409.28471224   -14420.71204479
  entropy T*S    EENTRO =        -0.00000000
  eigenvalues    EBANDS =     -1424.94701636
  atomic energy  EATOM  =      5371.26345991
  Solvation  Ediel_sol  =         0.00000000
  ---------------------------------------------------
  free energy    TOTEN  =      -278.43250240 eV

  energy without entropy =     -278.43250240  energy(sigma->0) =     -278.43250240


--------------------------------------------------------------------------------------------------------




--------------------------------------- Iteration      1(  21)  ---------------------------------------


    POTLOK:  cpu time      0.0417: real time      0.0548
    SETDIJ:  cpu time      0.0042: real time      0.0042
    EDDIAG:  cpu time      0.2279: real time      0.2281
  RMM-DIIS:  cpu time      0.5965: real time      0.5965
    ORTHCH:  cpu time      0.0394: real time      0.0394
       DOS:  cpu time      0.0003: real time      0.0013
    CHARGE:  cpu time      0.5222: real time      0.5223
    MIXING:  cpu time      0.0050: real time      0.0050
    --------------------------------------------
      LOOP:  cpu time      1.4372: real time      1.4516

 eigenvalue-minimisations  :  2209
 total energy-change (2. order) :-0.9439213E-03  (-0.2284321E-04)
 number of electron     127.9999981 magnetization      -0.0027023
 augmentation part        3.6855699 magnetization      -0.0027153

 Broyden mixing:
  rms(total) = 0.92611E-03    rms(broyden)= 0.92544E-03
  rms(prec ) = 0.13035E-02
  weight for this iteration     100.00

 eigenvalues of (default mixing * dielectric matrix)
  average eigenvalue GAMMA=   1.6744
  5.6944  4.0674  2.5780  2.5780  2.0464  1.4903  1.1317  1.1317  0.9522  0.9522
  0.7915  0.7915  0.7039  0.6525  0.6112  0.6173

 Free energy of the ion-electron system (eV)
  ---------------------------------------------------
  alpha Z        PSCENC =        69.43433294
  Ewald energy   TEWEN  =     12359.09823215
  -Hartree energ DENC   =    -17094.37007115
  -exchange      EXHF   =         0.00000000
  -V(xc)+E(xc)   XCENC  =       451.54949535
  PAW double counting   =     14407.13754849   -14418.56577218
  entropy T*S    EENTRO =        -0.00000000
  eigenvalues    EBANDS =     -1423.98067181
  atomic energy  EATOM  =      5371.26345991
  Solvation  Ediel_sol  =         0.00000000
  ---------------------------------------------------
  free energy    TOTEN  =      -278.43344632 eV

  energy without entropy =     -278.43344632  energy(sigma->0) =     -278.43344632


--------------------------------------------------------------------------------------------------------




--------------------------------------- Iteration      1(  22)  ---------------------------------------


    POTLOK:  cpu time      0.0421: real time      0.0545
    SETDIJ:  cpu time      0.0041: real time      0.0041
    EDDIAG:  cpu time      0.2279: real time      0.2279
  RMM-DIIS:  cpu time      0.5818: real time      0.5819
    ORTHCH:  cpu time      0.0620: real time      0.0620
       DOS:  cpu time      0.0003: real time      0.0012
    CHARGE:  cpu time      0.5910: real time      0.5911
    MIXING:  cpu time      0.0113: real time      0.0113
    --------------------------------------------
      LOOP:  cpu time      1.5207: real time      1.5342

 eigenvalue-minimisations  :  2029
 total energy-change (2. order) :-0.3585896E-03  (-0.5843236E-05)
 number of electron     127.9999981 magnetization      -0.0017614
 augmentation part        3.6854876 magnetization      -0.0016851

 Broyden mixing:
  rms(total) = 0.90056E-03    rms(broyden)= 0.90041E-03
  rms(prec ) = 0.10244E-02
  weight for this iteration     100.00

 eigenvalues of (default mixing * dielectric matrix)
  average eigenvalue GAMMA=   1.7529
  7.0593  4.0873  2.7224  2.7224  2.3090  1.6147  1.1290  1.1290  0.9483  0.9483
  0.9602  0.8081  0.8081  0.6623  0.6623  0.6143  0.6143

 Free energy of the ion-electron system (eV)
  ---------------------------------------------------
  alpha Z        PSCENC =        69.43433294
  Ewald energy   TEWEN  =     12359.09823215
  -Hartree energ DENC   =    -17094.82721759
  -exchange      EXHF   =         0.00000000
  -V(xc)+E(xc)   XCENC  =       451.55248003
  PAW double counting   =     14405.98803434   -14417.41608720
  entropy T*S    EENTRO =        -0.00000000
  eigenvalues    EBANDS =     -1423.52703947
  atomic energy  EATOM  =      5371.26345991
  Solvation  Ediel_sol  =         0.00000000
  ---------------------------------------------------
  free energy    TOTEN  =      -278.43380491 eV

  energy without entropy =     -278.43380491  energy(sigma->0) =     -278.43380491


--------------------------------------------------------------------------------------------------------




--------------------------------------- Iteration      1(  23)  ---------------------------------------


    POTLOK:  cpu time      0.0547: real time      0.0665
    SETDIJ:  cpu time      0.0042: real time      0.0042
    EDDIAG:  cpu time      0.2826: real time      0.2827
  RMM-DIIS:  cpu time      0.5511: real time      0.5511
    ORTHCH:  cpu time      0.0524: real time      0.0524
       DOS:  cpu time      0.0025: real time      0.0035
    CHARGE:  cpu time      0.5937: real time      0.5939
    MIXING:  cpu time      0.0144: real time      0.0144
    --------------------------------------------
      LOOP:  cpu time      1.5555: real time      1.5686

 eigenvalue-minimisations  :  1949
 total energy-change (2. order) :-0.1730978E-03  (-0.1635569E-05)
 number of electron     127.9999981 magnetization      -0.0012685
 augmentation part        3.6854901 magnetization      -0.0012396

 Broyden mixing:
  rms(total) = 0.48703E-03    rms(broyden)= 0.48699E-03
  rms(prec ) = 0.54787E-03
  weight for this iteration     100.00

 eigenvalues of (default mixing * dielectric matrix)
  average eigenvalue GAMMA=   1.7938
  8.0165  4.0707  3.0082  2.6628  2.3630  1.6827  1.3686  1.1403  1.1403  0.9566
  0.9566  0.8124  0.8124  0.7615  0.6667  0.6135  0.6280  0.6280

 Free energy of the ion-electron system (eV)
  ---------------------------------------------------
  alpha Z        PSCENC =        69.43433294
  Ewald energy   TEWEN  =     12359.09823215
  -Hartree energ DENC   =    -17095.01218247
  -exchange      EXHF   =         0.00000000
  -V(xc)+E(xc)   XCENC  =       451.55354346
  PAW double counting   =     14405.92635369   -14417.35436771
  entropy T*S    EENTRO =        -0.00000000
  eigenvalues    EBANDS =     -1423.34334996
  atomic energy  EATOM  =      5371.26345991
  Solvation  Ediel_sol  =         0.00000000
  ---------------------------------------------------
  free energy    TOTEN  =      -278.43397800 eV

  energy without entropy =     -278.43397800  energy(sigma->0) =     -278.43397800


[...]
    122       6.8592      0.00000
    123       7.0103      0.00000
    124       7.1535      0.00000
    125       7.2679      0.00000
    126       7.3776      0.00000
    127       7.4891      0.00000
    128       8.0421      0.00000

 k-point     3 :       0.3333    0.3333    0.0000
  band No.  band energies     occupation 
      1     -21.3403      1.00000
      2     -21.3297      1.00000
      3     -21.1480      1.00000
      4     -20.2297      1.00000
      5     -20.2218      1.00000
      6     -20.0477      1.00000
      7     -19.3267      1.00000
      8     -19.3258      1.00000
      9     -19.3223      1.00000
     10     -19.3110      1.00000
     11     -19.2985      1.00000
     12     -18.8718      1.00000
     13     -18.4363      1.00000
     14     -18.4289      1.00000
     15     -18.1906      1.00000
     16     -17.3349      1.00000
     17     -12.6535      1.00000
     18     -12.5791      1.00000
     19     -12.4982      1.00000
     20     -11.9224      1.00000
     21     -11.7725      1.00000
     22     -11.7100      1.00000
     23     -11.7054      1.00000
     24     -11.7022      1.00000
     25     -11.4924      1.00000
     26     -11.2747      1.00000
     27     -11.1004      1.00000
     28      -9.7756      1.00000
     29      -9.6104      1.00000
     30      -9.6049      1.00000
     31      -9.5873      1.00000
     32      -9.3107      1.00000
     33      -9.2772      1.00000
     34      -8.8093      1.00000
     35      -8.8044      1.00000
     36      -8.5248      1.00000
     37      -8.3114      1.00000
     38      -8.3062      1.00000
     39      -8.3049      1.00000
     40      -8.2978      1.00000
     41      -8.1358      1.00000
     42      -8.1327      1.00000
     43      -8.0378      1.00000
     44      -7.6243      1.00000
     45      -7.5890      1.00000
     46      -7.3045      1.00000
     47      -7.2942      1.00000
     48      -7.2381      1.00000
     49      -6.8615      1.00000
     50      -6.6880      1.00000
     51      -6.6338      1.00000
     52      -6.2818      1.00000
     53      -6.2371      1.00000
     54      -6.2036      1.00000
     55      -5.9977      1.00000
     56      -5.9962      1.00000
     57      -5.9915      1.00000
     58      -5.7793      1.00000
     59      -5.2543      1.00000
     60      -5.0879      1.00000
     61      -4.8238      1.00000
     62      -4.6553      1.00000
     63      -4.5469      1.00000
     64      -4.1837      1.00000
     65      -0.3017      0.00000
     66       0.4887      0.00000
     67       0.5952      0.00000
     68       0.6754      0.00000
     69       0.8058      0.00000
     70       1.3001      0.00000
     71       1.3028      0.00000
     72       1.6937      0.00000
     73       1.8053      0.00000
     74       1.9154      0.00000
     75       2.0990      0.00000
     76       2.1022      0.00000
     77       2.1049      0.00000
     78       2.2607      0.00000
     79       2.2646      0.00000
     80       2.3441      0.00000
     81       2.7427      0.00000
     82       2.8470      0.00000
     83       2.8518      0.00000
     84       2.9344      0.00000
     85       3.2333      0.00000
     86       3.2377      0.00000
     87       3.5080      0.00000
     88       3.5279      0.00000
     89       3.6576      0.00000
     90       4.0423      0.00000
     91       4.5154      0.00000
     92       4.5184      0.00000
     93       4.6899      0.00000
     94       4.7512      0.00000
     95       4.8085      0.00000
     96       4.8214      0.00000
     97       4.8414      0.00000
     98       4.8714      0.00000
     99       4.9383      0.00000
    100       4.9442      0.00000
    101       4.9545      0.00000
    102       4.9632      0.00000
    103       5.0741      0.00000
    104       5.0892      0.00000
    105       5.2177      0.00000
    106       5.2884      0.00000
    107       5.3132      0.00000
    108       6.0648      0.00000
    109       6.2849      0.00000
    110       6.4166      0.00000
    111       6.5352      0.00000
    112       6.5542      0.00000
    113       6.5629      0.00000
    114       6.6235      0.00000
    115       6.6971      0.00000
    116       6.7211      0.00000
    117       6.7333      0.00000
    118       7.1134      0.00000
    119       7.2101      0.00000
    120       7.2417      0.00000
    121       7.3807      0.00000
    122       7.4005      0.00000
    123       7.4329      0.00000
    124       7.7087      0.00000
    125       7.7289      0.00000
    126       8.0745      0.00000
    127       8.3574      0.00000
    128       8.3811      0.00000


--------------------------------------------------------------------------------------------------------


 soft charge-density along one line, spin component           1
         0         1         2         3         4         5         6         7         8         9
 total charge-density along one line

 soft charge-density along one line, spin component           2
         0         1         2         3         4         5         6         7         8         9
 total charge-density along one line

 pseudopotential strength for first ion, spin component:           1
  6.786  10.358   0.000   0.000   0.000   0.000   0.001   0.000
 10.358  15.807   0.000   0.001   0.000   0.000   0.001   0.000
  0.000   0.000  -2.343  -0.000  -0.000  -4.030  -0.000  -0.000
  0.000   0.001  -0.000  -2.341  -0.000  -0.000  -4.022  -0.000
  0.000   0.000  -0.000  -0.000  -2.343  -0.000  -0.000  -4.030
  0.000   0.000  -4.030  -0.000  -0.000  -6.732  -0.000  -0.000
  0.001   0.001  -0.000  -4.022  -0.000  -0.000  -6.713  -0.000
  0.000   0.000  -0.000  -0.000  -4.030  -0.000  -0.000  -6.732
 pseudopotential strength for first ion, spin component:           2
  6.786  10.358   0.000   0.000   0.000   0.000   0.001   0.000
 10.358  15.807   0.000   0.001   0.000   0.000   0.001   0.000
  0.000   0.000  -2.343  -0.000  -0.000  -4.030  -0.000  -0.000
  0.000   0.001  -0.000  -2.341  -0.000  -0.000  -4.022  -0.000
  0.000   0.000  -0.000  -0.000  -2.343  -0.000  -0.000  -4.030
  0.000   0.000  -4.030  -0.000  -0.000  -6.732  -0.000  -0.000
  0.001   0.001  -0.000  -4.022  -0.000  -0.000  -6.713  -0.000
  0.000   0.000  -0.000  -0.000  -4.030  -0.000  -0.000  -6.732
 total augmentation occupancy for first ion, spin component:           1
  4.195  -1.222  -0.001  -0.005  -0.003  -0.000   0.001   0.000
 -1.222   0.385  -0.000   0.000  -0.000   0.000  -0.000   0.000
 -0.001  -0.000   4.887  -0.007  -0.004  -1.469   0.001   0.001
 -0.005   0.000  -0.007   1.586  -0.012   0.001  -0.386   0.001
 -0.003  -0.000  -0.004  -0.012   4.883   0.001   0.002  -1.469
 -0.000   0.000  -1.469   0.001   0.001   0.457  -0.000   0.000
  0.001  -0.000   0.001  -0.386   0.002  -0.000   0.095  -0.000
  0.000   0.000   0.001   0.001  -1.469   0.000  -0.000   0.457
 total augmentation occupancy for first ion, spin component:           2
  0.000  -0.000  -0.000  -0.000   0.000   0.000   0.000  -0.000
 -0.000   0.000   0.000   0.000  -0.000  -0.000  -0.000   0.000
 -0.000   0.000   0.000  -0.000  -0.000  -0.000   0.000   0.000
 -0.000   0.000  -0.000   0.000   0.000   0.000  -0.000  -0.000
  0.000  -0.000  -0.000   0.000   0.000   0.000   0.000  -0.000
  0.000  -0.000  -0.000   0.000   0.000   0.000  -0.000  -0.000
  0.000  -0.000   0.000  -0.000   0.000  -0.000   0.000   0.000
 -0.000   0.000   0.000  -0.000  -0.000  -0.000   0.000   0.000


------------------------ aborting loop because EDIFF is reached ----------------------------------------


    CHARGE:  cpu time      0.5799: real time      0.5799
    FORLOC:  cpu time      0.0114: real time      0.0114
    FORNL :  cpu time      0.1363: real time      0.1368
    STRESS:  cpu time      0.4077: real time      0.4079
    FORCOR:  cpu time      0.0401: real time      0.0401
    FORHAR:  cpu time      0.0106: real time      0.0106
    MIXING:  cpu time      0.0022: real time      0.0022
    OFIELD:  cpu time      0.0000: real time      0.0000

 ---------------------------------------------------------------------------------------------

         DFTD3 V3.0 Rev 1        
 IVDW         = 11
 DF pbe       
 parameters
 VDW_S6       =    1.0000
 VDW_S8       =    0.7220
 VDW_SR       =    1.2170
 rs18     =    1.0000
 alpha6   =   14.0000
 alpha8   =   16.0000
 k1-k3    =   16.0000    1.3333   -4.0000
 VDW_RADIUS   =   50.2022 A
 VDW_CNRADIUS =   21.1671 A
 Edisp (eV)   -1.17611

 E6    (eV) :    -0.5984
 E8    (eV) :    -0.5777
 % E8        : 49.12
    FORVDW:  cpu time      0.1244: real time      0.1245

  FORCE on cell =-STRESS in cart. coord.  units (eV):
  Direction    XX          YY          ZZ          XY          YZ          ZX
  --------------------------------------------------------------------------------------
  Alpha Z    69.43433    69.43433    69.43433
  Ewald   16636.40499 16636.40499-20913.72153    -0.00000    -0.00000    -0.00000
  Hartree 16608.48414 16608.48414-16121.82218    -0.00000    -0.00000    -0.00000
  E(xc)    -503.09456  -503.09455  -517.69927    -0.00000    -0.00000    -0.00000
  Local  -34638.31654-34638.31548 35409.08538     0.00000    -0.00000     0.00000
  n-local  -236.37441  -236.47042  -233.97863    -0.08240    -0.00071     0.00120
  augment    17.33121    17.33015    19.85416    -0.00000    -0.00000     0.00000
  Kinetic  2042.19959  2043.43887  2282.04343     1.06953     0.01048    -0.01815
  Fock        0.00000     0.00000     0.00000     0.00000     0.00000     0.00000
  vdW        -0.81670    -0.81670    -0.01293     0.00000    -0.00000     0.00000
  -------------------------------------------------------------------------------------
  Total      -4.17630    -4.17630    -6.81724     0.00000    -0.00000     0.00000
  in kB      -5.10004    -5.10004    -8.32511     0.00000    -0.00000     0.00000
  external pressure =       -6.18 kB  Pullay stress =        0.00 kB


 VOLUME and BASIS-vectors are now :
 -----------------------------------------------------------------------------
  energy-cutoff  :      500.00
  volume of cell :     1311.99
      direct lattice vectors                 reciprocal lattice vectors
     5.024856456 -8.703306683  0.000000000     0.099505330 -0.057449429  0.000000000
     5.024856456  8.703306683  0.000000000     0.099505330  0.057449429 -0.000000000
     0.000000000  0.000000000 15.000000000    -0.000000000  0.000000000  0.066666667

  length of vectors
    10.049712912 10.049712912 15.000000000     0.114898858  0.114898858  0.066666667


 FORCES acting on ions
    electron-ion (+dipol)            ewald-force                    non-local-force                 convergence-correction
 -----------------------------------------------------------------------------------------------
   -.825E+00 -.227E+00 0.333E+01   0.761E+00 0.160E+00 -.355E+01   0.398E-01 0.170E-01 0.454E-01   0.272E-04 0.166E-04 0.839E-04
   0.463E-07 -.260E+01 0.698E+01   0.213E-13 0.260E+01 -.679E+01   -.209E-17 -.574E-01 -.331E-01   0.188E-13 0.556E-04 0.105E-03
   0.225E+01 0.130E+01 0.698E+01   -.225E+01 -.130E+01 -.679E+01   0.497E-01 0.287E-01 -.331E-01   -.481E-04 -.278E-04 0.105E-03
   0.374E-01 -.216E-01 0.243E+01   -.771E-01 0.445E-01 -.243E+01   0.656E-02 -.379E-02 0.951E-02   -.493E-05 0.285E-05 0.691E-04
   0.825E+00 -.227E+00 0.333E+01   -.761E+00 0.160E+00 -.355E+01   -.398E-01 0.170E-01 0.454E-01   -.272E-04 0.166E-04 0.839E-04
   0.216E+00 0.828E+00 0.333E+01   -.242E+00 -.739E+00 -.355E+01   -.522E-02 -.430E-01 0.454E-01   0.727E-06 -.318E-04 0.839E-04
   0.537E-07 0.333E+02 0.422E+02   0.333E-14 -.337E+02 -.383E+02   0.404E-19 -.905E+00 0.300E+00   0.105E-14 -.187E-03 0.189E-03
   0.157E-07 0.432E-01 0.243E+01   0.933E-14 -.891E-01 -.243E+01   -.114E-17 0.757E-02 0.951E-02   0.115E-13 -.569E-05 0.691E-04
   -.288E+02 -.166E+02 0.422E+02   0.292E+02 0.168E+02 -.383E+02   0.784E+00 0.453E+00 0.300E+00   0.162E-03 0.936E-04 0.189E-03
   -.374E-01 -.216E-01 0.243E+01   0.771E-01 0.445E-01 -.243E+01   -.656E-02 -.379E-02 0.951E-02   0.493E-05 0.285E-05 0.691E-04
   0.210E-08 -.371E-05 0.227E+01   0.426E-13 0.129E-10 -.221E+01   -.207E-18 0.171E-17 -.610E-02   -.321E-13 0.101E-08 0.683E-04
   -.216E+00 0.828E+00 0.333E+01   0.242E+00 -.739E+00 -.355E+01   0.522E-02 -.430E-01 0.454E-01   -.727E-06 -.318E-04 0.839E-04
   0.609E+00 -.601E+00 0.333E+01   -.519E+00 0.579E+00 -.355E+01   -.346E-01 0.260E-01 0.454E-01   -.279E-04 0.153E-04 0.839E-04
   -.225E+01 0.130E+01 0.698E+01   0.225E+01 -.130E+01 -.679E+01   -.497E-01 0.287E-01 -.331E-01   0.481E-04 -.278E-04 0.105E-03
   -.609E+00 -.601E+00 0.333E+01   0.519E+00 0.579E+00 -.355E+01   0.346E-01 0.260E-01 0.454E-01   0.279E-04 0.153E-04 0.839E-04
   0.288E+02 -.166E+02 0.422E+02   -.292E+02 0.168E+02 -.383E+02   -.784E+00 0.453E+00 0.300E+00   -.162E-03 0.936E-04 0.189E-03
   0.276E-07 -.977E-02 0.430E+01   0.142E-13 -.130E-10 -.437E+01   -.228E-18 0.383E-01 0.123E+00   -.217E-13 0.268E-04 0.121E-03
   0.377E+01 -.647E+01 0.174E+02   -.379E+01 0.657E+01 -.164E+02   -.313E-01 -.240E-02 -.181E+01   -.114E-03 0.489E-04 0.186E-03
   0.749E+01 -.271E-01 0.174E+02   -.759E+01 -.130E-10 -.164E+02   -.136E-01 0.283E-01 -.181E+01   -.994E-04 0.743E-04 0.186E-03
   -.584E+00 0.337E+00 0.467E+01   0.617E+00 -.356E+00 -.466E+01   0.123E-01 -.712E-02 0.488E-02   0.464E-04 -.268E-04 0.119E-03
   0.847E-02 0.489E-02 0.430E+01   -.711E-14 -.129E-10 -.437E+01   -.332E-01 -.191E-01 0.123E+00   -.232E-04 -.134E-04 0.121E-03
   0.372E+01 0.650E+01 0.174E+02   -.379E+01 -.657E+01 -.164E+02   0.177E-01 -.259E-01 -.181E+01   0.146E-04 -.123E-03 0.186E-03
   0.584E+00 0.337E+00 0.467E+01   -.617E+00 -.356E+00 -.466E+01   -.123E-01 -.712E-02 0.488E-02   -.464E-04 -.268E-04 0.119E-03
   -.431E-06 0.238E-05 -.288E+03   -.320E-13 -.554E-11 0.305E+03   0.162E-18 0.145E-18 -.253E+02   0.128E-13 0.179E-09 0.640E-03
   -.377E+01 -.647E+01 0.174E+02   0.379E+01 0.657E+01 -.164E+02   0.313E-01 -.240E-02 -.181E+01   0.114E-03 0.489E-04 0.186E-03
   -.847E-02 0.489E-02 0.430E+01   -.107E-13 -.130E-10 -.437E+01   0.332E-01 -.191E-01 0.123E+00   0.232E-04 -.134E-04 0.121E-03
   0.429E-07 0.717E+00 0.471E+01   -.284E-13 -.713E+00 -.466E+01   -.477E-18 -.174E-01 -.263E-01   -.446E-13 -.355E-04 0.128E-03
   -.372E+01 0.650E+01 0.174E+02   0.379E+01 -.657E+01 -.164E+02   -.177E-01 -.259E-01 -.181E+01   -.146E-04 -.123E-03 0.186E-03
   -.749E+01 -.271E-01 0.174E+02   0.759E+01 -.129E-10 -.164E+02   0.136E-01 0.283E-01 -.181E+01   0.994E-04 0.743E-04 0.186E-03
   -.621E+00 -.359E+00 0.471E+01   0.617E+00 0.356E+00 -.466E+01   0.151E-01 0.872E-02 -.263E-01   0.307E-04 0.177E-04 0.128E-03
   -.354E-08 -.675E+00 0.467E+01   -.338E-13 0.713E+00 -.466E+01   -.270E-18 0.142E-01 0.488E-02   0.325E-13 0.536E-04 0.119E-03
   0.621E+00 -.359E+00 0.471E+01   -.617E+00 0.356E+00 -.466E+01   -.151E-01 0.872E-02 -.263E-01   -.307E-04 0.177E-04 0.128E-03
 -----------------------------------------------------------------------------------------------
   0.620E-06 -.214E-04 0.348E+02   -.303E-13 0.799E-14 0.622E-14   0.173E-17 -.625E-16 -.347E+02   -.315E-13 -.373E-07 0.452E-02


 POSITION                                       TOTAL-FORCE (eV/Angst)
 -----------------------------------------------------------------------------------
      1.25621      0.72528      1.92682        -0.023448     -0.049549     -0.176773
      5.02486     -1.45055      1.92682        -0.000000     -0.053773      0.153094
      7.53728      2.90110      1.92682         0.046569      0.026886      0.153094
      3.76864     -3.62638      1.92682        -0.033103      0.019112      0.011756
      8.79350      0.72528      1.92682         0.023448     -0.049549     -0.176773
      6.28107      5.07693      1.92682        -0.031187      0.045081     -0.176773
      5.02486      2.90110      1.92682        -0.000000     -1.309398      4.194357
      5.02486     -5.80220      1.92682        -0.000000     -0.038224      0.011756
      3.76864      0.72528      1.92682         1.133972      0.654699      4.194357
      6.28107     -3.62638      1.92682         0.033103      0.019112      0.011756
      5.02486      7.25276      1.92682        -0.000000     -0.000000      0.054196
      3.76864      5.07693      1.92682         0.031187      0.045081     -0.176773
      7.53728     -1.45055      1.92682         0.054635      0.004468     -0.176773
      2.51243      2.90110      1.92682        -0.046569      0.026886      0.153094
      2.51243     -1.45055      1.92682        -0.054635      0.004468     -0.176773
      6.28107      0.72528      1.92682        -1.133972      0.654699      4.194357
      5.02486     -7.25276      1.92682        -0.000000      0.028536      0.055780
      6.28107     -0.72528      1.92682        -0.056485      0.095216     -0.725142
      7.53728      1.45055      1.92682        -0.110702      0.001309     -0.725142
      6.28107     -5.07693      1.92682         0.044919     -0.025934      0.019168
      7.53728     -2.90110      1.92682        -0.024713     -0.014268      0.055780
      6.28107      3.62638      1.92682        -0.054217     -0.096525     -0.725142
      3.76864     -5.07693      1.92682        -0.044919     -0.025934      0.019168
      5.02486      1.45055      2.72682        -0.000000     -0.000000     -8.023889
      3.76864     -0.72528      1.92682         0.056485      0.095216     -0.725142
      2.51243     -2.90110      1.92682         0.024713     -0.014268      0.055780
      5.02486      5.80220      1.92682        -0.000000     -0.012644      0.026240
      3.76864      3.62638      1.92682         0.054217     -0.096525     -0.725142
      2.51243      1.45055      1.92682         0.110702      0.001309     -0.725142
      1.25621     -0.72528      1.92682         0.010950      0.006322      0.026240
      5.02486     -2.90110      1.92682        -0.000000      0.051868      0.019168
      8.79350     -0.72528      1.92682        -0.010950      0.006322      0.026240
 -----------------------------------------------------------------------------------
    total drift:                                0.000001     -0.000021      0.052163


--------------------------------------------------------------------------------------------------------



  FREE ENERGIE OF THE ION-ELECTRON SYSTEM (eV)
  ---------------------------------------------------
  free  energy   TOTEN  =      -279.61016407 eV

  energy  without entropy=     -279.61016407  energy(sigma->0) =     -279.61016407



--------------------------------------------------------------------------------------------------------


    POTLOK:  cpu time      0.0803: real time      0.0803


--------------------------------------------------------------------------------------------------------


     LOOP+:  cpu time     41.6390: real time     41.9131
    4ORBIT:  cpu time      0.0000: real time      0.0000

 total amount of memory used by VASP MPI-rank0    44649. kBytes
=======================================================================

   base      :      30000. kBytes
   nonlr-proj:       1860. kBytes
   fftplans  :       2696. kBytes
   grid      :       6813. kBytes
   one-center:         49. kBytes
   wavefun   :       3231. kBytes

  
  
 General timing and accounting informations for this job:
 ========================================================
  
                  Total CPU time used (sec):       45.268
                            User time (sec):       41.198
                          System time (sec):        4.070
                         Elapsed time (sec):       45.887
  
                   Maximum memory used (kb):      172468.
                   Average memory used (kb):          N/A
  
                          Minor page faults:       155369
                          Major page faults:         1174
                 Voluntary context switches:         2836
